 Entering Gaussian System, Link 0=g09
 Input=SFG_4_endo_b3lyp631plusgdp_1_nqcc.gjf
 Output=SFG_4_endo_b3lyp631plusgdp_1_nqcc.log
 Initial command:
 /opt/g09/l1.exe /tmp/Gau-14158.inp -scrdir=/tmp/
 Entering Link 1 = /opt/g09/l1.exe PID=     14159.
  
 Copyright (c) 1988,1990,1992,1993,1995,1998,2003,2009, Gaussian, Inc.
                  All Rights Reserved.
  
 This is part of the Gaussian(R) 09 program.  It is based on
 the Gaussian(R) 03 system (copyright 2003, Gaussian, Inc.),
 the Gaussian(R) 98 system (copyright 1998, Gaussian, Inc.),
 the Gaussian(R) 94 system (copyright 1995, Gaussian, Inc.),
 the Gaussian 92(TM) system (copyright 1992, Gaussian, Inc.),
 the Gaussian 90(TM) system (copyright 1990, Gaussian, Inc.),
 the Gaussian 88(TM) system (copyright 1988, Gaussian, Inc.),
 the Gaussian 86(TM) system (copyright 1986, Carnegie Mellon
 University), and the Gaussian 82(TM) system (copyright 1983,
 Carnegie Mellon University). Gaussian is a federally registered
 trademark of Gaussian, Inc.
  
 This software contains proprietary and confidential information,
 including trade secrets, belonging to Gaussian, Inc.
  
 This software is provided under written license and may be
 used, copied, transmitted, or stored only in accord with that
 written license.
  
 The following legend is applicable only to US Government
 contracts under FAR:
  
                    RESTRICTED RIGHTS LEGEND
  
 Use, reproduction and disclosure by the US Government is
 subject to restrictions as set forth in subparagraphs (a)
 and (c) of the Commercial Computer Software - Restricted
 Rights clause in FAR 52.227-19.
  
 Gaussian, Inc.
 340 Quinnipiac St., Bldg. 40, Wallingford CT 06492
  
  
 ---------------------------------------------------------------
 Warning -- This program may not be used in any manner that
 competes with the business of Gaussian, Inc. or will provide
 assistance to any competitor of Gaussian, Inc.  The licensee
 of this program is prohibited from giving any competitor of
 Gaussian, Inc. access to this program.  By using this program,
 the user acknowledges that Gaussian, Inc. is engaged in the
 business of creating and licensing software in the field of
 computational chemistry and represents and warrants to the
 licensee that it is not a competitor of Gaussian, Inc. and that
 it will not use this program in any manner prohibited above.
 ---------------------------------------------------------------
  

 Cite this work as:
 Gaussian 09, Revision A.02,
 M. J. Frisch, G. W. Trucks, H. B. Schlegel, G. E. Scuseria, 
 M. A. Robb, J. R. Cheeseman, G. Scalmani, V. Barone, B. Mennucci, 
 G. A. Petersson, H. Nakatsuji, M. Caricato, X. Li, H. P. Hratchian, 
 A. F. Izmaylov, J. Bloino, G. Zheng, J. L. Sonnenberg, M. Hada, 
 M. Ehara, K. Toyota, R. Fukuda, J. Hasegawa, M. Ishida, T. Nakajima, 
 Y. Honda, O. Kitao, H. Nakai, T. Vreven, J. A. Montgomery, Jr., 
 J. E. Peralta, F. Ogliaro, M. Bearpark, J. J. Heyd, E. Brothers, 
 K. N. Kudin, V. N. Staroverov, R. Kobayashi, J. Normand, 
 K. Raghavachari, A. Rendell, J. C. Burant, S. S. Iyengar, J. Tomasi, 
 M. Cossi, N. Rega, J. M. Millam, M. Klene, J. E. Knox, J. B. Cross, 
 V. Bakken, C. Adamo, J. Jaramillo, R. Gomperts, R. E. Stratmann, 
 O. Yazyev, A. J. Austin, R. Cammi, C. Pomelli, J. W. Ochterski, 
 R. L. Martin, K. Morokuma, V. G. Zakrzewski, G. A. Voth, 
 P. Salvador, J. J. Dannenberg, S. Dapprich, A. D. Daniels, 
 O. Farkas, J. B. Foresman, J. V. Ortiz, J. Cioslowski, 
 and D. J. Fox, Gaussian, Inc., Wallingford CT, 2009.
 
 ******************************************
 Gaussian 09:  EM64L-G09RevA.02 11-Jun-2009
                25-Jun-2018 
 ******************************************
 %nprocshared=23
 Will use up to   23 processors via shared memory.
 %mem=40GB
 %chk=SFG_4_endo_b3lyp631plusgdp_1_nqcc.chk
 --------------------------------------------------------
 # nmr=(giao,spinspin) rb3lyp/6-31g(df,3p) output=pickett
 --------------------------------------------------------
 1/38=1/1;
 2/12=2,17=6,18=5,40=1/2;
 3/5=1,6=6,7=503,11=2,16=1,25=1,30=1,74=-5,116=1/1,2,8,3;
 4//1;
 5/5=2,38=5/2;
 8/6=1,10=90,11=11/1;
 10/13=100,45=16,47=1/2;
 6/7=2,8=2,9=2,10=2,28=1/1;
 99/9=1,10=1024/99;
 -------------------
 Title Card Required
 -------------------
 Symbolic Z-matrix:
 Charge =  0 Multiplicity = 1
 C                    -2.92232  -0.5133   -1.22895 
 C                    -2.14248  -1.77946  -0.89467 
 C                    -2.22034  -1.94695   0.43796 
 C                    -3.0516   -0.79163   0.98235 
 C                    -0.94692   0.63127   1.31286 
 C                    -0.81204   0.91348  -0.96339 
 H(Iso=2, spin=2)     -3.17719  -0.30895  -2.2653 
 H                    -1.55009  -2.34613  -1.60317 
 H                    -1.7051   -2.6794    1.04802 
 H(Iso=2, spin=2)     -3.42634  -0.84474   2.00094 
 C                    -4.05134  -0.5686   -0.17499 
 O                    -0.61649   0.50857   2.48482 
 O                    -0.36357   1.05962  -2.0926 
 N                    -2.22354   0.45999   0.78716 
 N                    -2.14026   0.6396   -0.63852 
 N                    -0.13406   1.03639   0.25062 
 H                    -4.71235  -1.42212  -0.32102 
 H                    -4.62116   0.35949  -0.09126 
 C                     1.27681   1.44731   0.45697 
 H                     1.31802   1.64831   1.53022 
 C                     1.59052   2.75099  -0.28855 
 H                     0.87872   3.53138  -0.00245 
 H                     2.59512   3.08236  -0.01142 
 H                     1.55276   2.62388  -1.37146 
 C                     2.25492   0.31015   0.17241 
 C                     2.53007  -0.12671  -1.13336 
 C                     2.91404  -0.30969   1.24356 
 C                     3.43965  -1.16354  -1.35669 
 H                     2.02261   0.33535  -1.97343 
 C                     3.82752  -1.34537   1.02137 
 H                     2.71169   0.01859   2.25971 
 C                     4.09198  -1.77622  -0.28114 
 H                     3.63964  -1.49242  -2.37262 
 H                     4.32852  -1.81251   1.86438 
 H                     4.79974  -2.58094  -0.45813 
 
                          Input orientation:                          
 ---------------------------------------------------------------------
 Center     Atomic      Atomic             Coordinates (Angstroms)
 Number     Number       Type             X           Y           Z
 ---------------------------------------------------------------------
      1          6           0       -2.922317   -0.513298   -1.228945
      2          6           0       -2.142477   -1.779457   -0.894673
      3          6           0       -2.220338   -1.946946    0.437958
      4          6           0       -3.051600   -0.791631    0.982354
      5          6           0       -0.946915    0.631271    1.312863
      6          6           0       -0.812037    0.913476   -0.963394
      7          1           0       -3.177189   -0.308946   -2.265295
      8          1           0       -1.550088   -2.346133   -1.603170
      9          1           0       -1.705101   -2.679399    1.048025
     10          1           0       -3.426339   -0.844742    2.000938
     11          6           0       -4.051344   -0.568596   -0.174988
     12          8           0       -0.616492    0.508571    2.484818
     13          8           0       -0.363569    1.059623   -2.092600
     14          7           0       -2.223542    0.459989    0.787157
     15          7           0       -2.140262    0.639595   -0.638523
     16          7           0       -0.134056    1.036388    0.250620
     17          1           0       -4.712354   -1.422124   -0.321018
     18          1           0       -4.621164    0.359488   -0.091256
     19          6           0        1.276811    1.447306    0.456968
     20          1           0        1.318018    1.648309    1.530221
     21          6           0        1.590523    2.750992   -0.288546
     22          1           0        0.878723    3.531382   -0.002453
     23          1           0        2.595124    3.082359   -0.011416
     24          1           0        1.552760    2.623878   -1.371455
     25          6           0        2.254921    0.310153    0.172412
     26          6           0        2.530072   -0.126709   -1.133364
     27          6           0        2.914039   -0.309690    1.243557
     28          6           0        3.439649   -1.163538   -1.356692
     29          1           0        2.022614    0.335351   -1.973431
     30          6           0        3.827518   -1.345367    1.021367
     31          1           0        2.711693    0.018592    2.259711
     32          6           0        4.091978   -1.776216   -0.281135
     33          1           0        3.639642   -1.492423   -2.372621
     34          1           0        4.328524   -1.812511    1.864377
     35          1           0        4.799744   -2.580935   -0.458130
 ---------------------------------------------------------------------
                    Distance matrix (angstroms):
                    1          2          3          4          5
     1  C    0.000000
     2  C    1.524154   0.000000
     3  C    2.307962   1.345370   0.000000
     4  C    2.232493   2.307712   1.523849   0.000000
     5  C    3.416583   3.480545   3.005706   2.561950   0.000000
     6  C    2.561149   3.004444   3.482688   3.421837   2.297646
     7  H    1.086619   2.260893   3.302451   3.285724   4.319878
     8  H    2.319987   1.083519   2.185129   3.369859   4.210938
     9  H    3.370193   2.185239   1.083577   2.319707   3.406688
    10  H    3.285732   3.302508   2.261017   1.086629   2.966413
    11  C    1.545505   2.372320   2.372369   1.545533   3.645663
    12  O    4.489218   4.357139   3.576524   3.142877   1.223811
    13  O    3.125247   3.558078   4.346352   4.484194   3.481516
    14  N    2.345259   2.801828   2.432136   1.513385   1.391216
    15  N    1.513067   2.432577   2.802752   2.346527   2.287368
    16  N    3.516396   3.643410   3.645264   3.519823   1.397576
    17  H    2.203299   2.657261   2.657372   2.203271   4.589611
    18  H    2.223100   3.371121   3.371004   2.222891   3.942781
    19  C    4.931424   4.891877   4.873537   4.901429   2.518616
    20  H    5.501453   5.441022   5.161285   5.034583   2.492295
    21  C    5.648510   5.901495   6.092708   5.976175   3.673734
    22  H    5.684331   6.174845   6.309534   5.925008   3.670648
    23  H    6.697259   6.845602   6.977429   6.919600   4.506394
    24  H    5.467037   5.768142   6.196989   6.197278   4.174257
    25  C    5.426386   4.984200   5.019258   5.479881   3.414015
    26  C    5.466913   4.961982   5.324351   6.006117   4.318333
    27  C    6.341748   5.683361   5.448984   5.990771   3.974566
    28  C    6.396385   5.634975   5.989153   6.909831   5.439651
    29  H    5.072160   4.794175   5.387608   5.979498   4.439076
    30  C    7.163555   6.284941   6.105639   6.901479   5.175643
    31  H    6.647984   6.061855   5.613114   5.958494   3.828487
    32  C    7.189829   6.264572   6.355437   7.320964   5.807518
    33  H    6.732458   5.974916   6.515007   7.517958   6.255348
    34  H    7.989449   7.034721   6.703755   7.502426   5.840077
    35  H    8.031158   7.001955   7.105383   8.180477   6.817534
                    6          7          8          9         10
     6  C    0.000000
     7  H    2.963647   0.000000
     8  H    3.402805   2.689981   0.000000
     9  H    4.213327   4.331764   2.676552   0.000000
    10  H    4.325872   4.306959   4.331753   2.690106   0.000000
    11  C    3.648456   2.280559   3.384616   3.384687   2.280689
    12  O    3.477406   5.457937   5.072729   3.662321   3.156079
    13  O    1.223760   3.133570   3.639580   5.063943   5.455659
    14  N    2.293998   3.289098   3.747202   3.192584   2.149955
    15  N    1.394537   2.149729   3.192714   3.748270   3.289986
    16  N    1.395921   4.171380   4.108909   4.112312   4.176289
    17  H    4.591312   2.715899   3.535199   3.535334   2.716373
    18  H    3.946768   2.694126   4.363230   4.363052   2.693520
    19  C    2.581799   5.507563   5.160010   5.125509   5.454993
    20  H    3.360838   6.200296   5.830929   5.301020   5.380130
    21  C    3.099061   6.000153   6.129629   6.491279   6.583308
    22  H    3.261213   6.026524   6.557942   6.808337   6.457368
    23  H    4.149586   7.064030   7.013201   7.267201   7.465233
    24  H    2.946906   5.636739   5.863648   6.677746   6.942318
    25  C    3.325701   5.986110   4.968565   5.038442   6.078981
    26  C    3.504364   5.821280   4.668433   5.404755   6.768918
    27  C    4.500046   7.029588   5.672688   5.195210   6.407831
    28  C    4.748211   6.733382   5.133883   5.877836   7.649647
    29  H    3.064254   5.247690   4.482371   5.666902   6.846847
    30  C    5.528754   7.806551   6.066990   5.691241   7.336799
    31  H    4.858590   7.433834   6.219047   5.315582   6.203849
    32  C    5.634650   7.676624   5.822842   6.015690   7.912054
    33  H    5.252782   6.919633   5.315465   6.455696   8.335202
    34  H    6.469363   8.697737   6.845927   6.150005   7.816209
    35  H    6.630105   8.488771   6.456517   6.677665   8.759556
                   11         12         13         14         15
    11  C    0.000000
    12  O    4.475831   0.000000
    13  O    4.464081   4.617400   0.000000
    14  N    2.307503   2.338167   3.480239   0.000000
    15  N    2.307991   3.477686   2.333967   1.439360   0.000000
    16  N    4.254675   2.345842   2.354548   2.232949   2.229996
    17  H    1.089389   5.326949   5.311262   3.311282   3.311669
    18  H    1.092266   4.764009   4.756331   2.555445   2.555941
    19  C    5.731707   2.928821   3.056377   3.651889   3.678163
    20  H    6.054127   2.439792   4.037217   3.808792   4.204837
    21  C    6.547001   4.194152   3.151796   4.577436   4.301074
    22  H    6.414448   4.190414   3.467217   4.436326   4.228627
    23  H    7.584970   4.813527   4.144472   5.543833   5.365095
    24  H    6.559680   4.904184   2.576676   4.858238   4.255935
    25  C    6.376666   3.692100   3.542383   4.522941   4.481493
    26  C    6.665492   4.836909   3.271189   5.160374   4.758583
    27  C    7.113077   3.830787   4.873159   5.214925   5.476251
    28  C    7.606928   5.831417   4.466371   6.269263   5.907831
    29  H    6.398788   5.183712   2.496526   5.066184   4.382246
    30  C    8.006941   5.032693   5.748563   6.318979   6.504591
    31  H    7.211880   3.371582   5.429880   5.169119   5.685673
    32  C    8.233062   5.919496   5.583483   6.784368   6.693630
    33  H    8.051976   6.761166   4.755739   6.940680   6.399991
    34  H    8.713697   5.497777   6.776618   7.018136   7.356801
    35  H    9.081379   6.895042   6.525715   7.753999   7.652976
                   16         17         18         19         20
    16  N    0.000000
    17  H    5.227989   0.000000
    18  H    4.550737   1.798679   0.000000
    19  C    1.483907   6.686478   6.022459   0.000000
    20  H    2.029863   7.015699   6.290002   1.092690   0.000000
    21  C    2.490931   7.559247   6.659074   1.534211   2.144314
    22  H    2.704582   7.476553   6.349611   2.170925   2.467394
    23  H    3.420977   8.589846   7.713314   2.151913   2.462548
    24  H    2.827826   7.531614   6.699531   2.191712   3.070271
    25  C    2.498148   7.196331   6.881315   1.526692   2.124169
    26  C    3.219594   7.402077   7.243104   2.564633   3.422638
    27  C    3.476886   7.864304   7.681719   2.527108   2.542286
    28  C    4.493828   8.221596   8.300460   3.844963   4.554346
    29  H    3.176331   7.153949   6.905284   2.774798   3.807347
    30  C    4.686243   8.645074   8.690494   3.824091   3.939368
    31  H    3.629138   7.990763   7.708051   2.711087   2.265053
    32  C    5.104201   8.811540   8.973078   4.342932   4.764791
    33  H    5.245672   8.600573   8.767846   4.715035   5.521441
    34  H    5.534895   9.309448   9.414828   4.681897   4.599139
    35  H    6.158712   9.583405   9.875940   5.429106   5.827732
                   21         22         23         24         25
    21  C    0.000000
    22  H    1.094311   0.000000
    23  H    1.093539   1.774186   0.000000
    24  H    1.090998   1.775403   1.773819   0.000000
    25  C    2.571304   3.507252   2.799046   2.868777   0.000000
    26  C    3.142870   4.169837   3.400164   2.928746   1.404139
    27  C    3.669715   4.522044   3.630793   4.158989   1.402139
    28  C    4.459120   5.516754   4.533280   4.231440   2.431770
    29  H    2.976720   3.925284   3.423934   2.412570   2.158528
    30  C    4.847698   5.790188   4.710647   5.162851   2.436090
    31  H    3.900852   4.562550   3.815531   4.616926   2.156494
    32  C    5.172325   6.210738   5.091078   5.195888   2.816633
    33  H    5.152555   6.203143   5.253088   4.722430   3.412320
    34  H    5.740844   6.628980   5.521144   6.152806   3.415886
    35  H    6.225536   7.276157   6.093669   6.202189   3.902832
                   26         27         28         29         30
    26  C    0.000000
    27  C    2.414677   0.000000
    28  C    1.397219   2.786865   0.000000
    29  H    1.084770   3.399960   2.152910   0.000000
    30  C    2.794881   1.398728   2.416334   3.879601   0.000000
    31  H    3.401038   1.086868   3.873722   4.300542   2.153821
    32  C    2.426256   2.421348   1.399189   3.406589   1.397169
    33  H    2.152226   3.873254   1.086404   2.472830   3.402364
    34  H    3.881083   2.155146   3.403902   4.965813   1.086230
    35  H    3.410363   3.407371   2.160159   4.302710   2.158880
                   31         32         33         34         35
    31  H    0.000000
    32  C    3.403296   0.000000
    33  H    4.960116   2.158578   0.000000
    34  H    2.474544   2.158818   4.304552   0.000000
    35  H    4.301646   1.086201   2.489171   2.491297   0.000000
 Stoichiometry    C15H15N3O2
 Framework group  C1[X(C15H15N3O2)]
 Deg. of freedom    99
 Full point group                 C1      NOp   1
 Largest Abelian subgroup         C1      NOp   1
 Largest concise Abelian subgroup C1      NOp   1
                         Standard orientation:                         
 ---------------------------------------------------------------------
 Center     Atomic      Atomic             Coordinates (Angstroms)
 Number     Number       Type             X           Y           Z
 ---------------------------------------------------------------------
      1          6           0       -2.922317   -0.513298   -1.228945
      2          6           0       -2.142477   -1.779457   -0.894673
      3          6           0       -2.220338   -1.946946    0.437958
      4          6           0       -3.051600   -0.791631    0.982354
      5          6           0       -0.946915    0.631271    1.312863
      6          6           0       -0.812037    0.913476   -0.963394
      7          1           0       -3.177189   -0.308946   -2.265295
      8          1           0       -1.550088   -2.346133   -1.603170
      9          1           0       -1.705101   -2.679399    1.048025
     10          1           0       -3.426339   -0.844742    2.000938
     11          6           0       -4.051344   -0.568596   -0.174988
     12          8           0       -0.616492    0.508571    2.484818
     13          8           0       -0.363569    1.059623   -2.092600
     14          7           0       -2.223542    0.459989    0.787157
     15          7           0       -2.140262    0.639595   -0.638523
     16          7           0       -0.134056    1.036388    0.250620
     17          1           0       -4.712354   -1.422124   -0.321018
     18          1           0       -4.621164    0.359488   -0.091256
     19          6           0        1.276811    1.447306    0.456968
     20          1           0        1.318018    1.648309    1.530221
     21          6           0        1.590523    2.750992   -0.288546
     22          1           0        0.878723    3.531382   -0.002453
     23          1           0        2.595124    3.082359   -0.011416
     24          1           0        1.552760    2.623878   -1.371455
     25          6           0        2.254921    0.310153    0.172412
     26          6           0        2.530072   -0.126709   -1.133364
     27          6           0        2.914039   -0.309690    1.243557
     28          6           0        3.439649   -1.163538   -1.356692
     29          1           0        2.022614    0.335351   -1.973431
     30          6           0        3.827518   -1.345367    1.021367
     31          1           0        2.711693    0.018592    2.259711
     32          6           0        4.091978   -1.776216   -0.281135
     33          1           0        3.639642   -1.492423   -2.372621
     34          1           0        4.328524   -1.812511    1.864377
     35          1           0        4.799744   -2.580935   -0.458130
 ---------------------------------------------------------------------
 Rotational constants (GHZ):      0.6398289      0.2474999      0.2430259
 Standard basis: 6-31G(df,3p) (6D, 7F)
 There are   605 symmetry adapted basis functions of A   symmetry.
 Integral buffers will be    131072 words long.
 Raffenetti 2 integral format.
 Two-electron integral symmetry is turned on.
   605 basis functions,   955 primitive gaussians,   665 cartesian basis functions
    71 alpha electrons       71 beta electrons
       nuclear repulsion energy      1581.3739587271 Hartrees.
 NAtoms=   35 NActive=   35 NUniq=   35 SFac= 7.50D-01 NAtFMM=   80 NAOKFM=F Big=F
 One-electron integrals computed using PRISM.
 NBasis=   605 RedAO= T  NBF=   605
 NBsUse=   605 1.00D-06 NBFU=   605
 Harris functional with IExCor=  402 diagonalized for initial guess.
 ExpMin= 1.61D-01 ExpMax= 5.48D+03 ExpMxC= 8.25D+02 IAcc=1 IRadAn=         1 AccDes= 0.00D+00
 HarFok:  IExCor=  402 AccDes= 0.00D+00 IRadAn=         1 IDoV= 1
 ScaDFX=  1.000000  1.000000  1.000000  1.000000
 FoFCou: FMM=F IPFlag=           0 FMFlag=      100000 FMFlg1=           0
         NFxFlg=           0 DoJE=T BraDBF=F KetDBF=T FulRan=T
         Omega=  0.000000  0.000000  1.000000  0.000000  0.000000 ICntrl=     500 IOpCl=  0
         NMat0=    1 NMatS0=    1 NMatT0=    0 NMatD0=    1 NMtDS0=    0 NMtDT0=    0
         I1Cent=           4 NGrid=           0.
 Petite list used in FoFCou.
 Initial guess orbital symmetries:
       Occupied  (A) (A) (A) (A) (A) (A) (A) (A) (A) (A) (A) (A)
                 (A) (A) (A) (A) (A) (A) (A) (A) (A) (A) (A) (A)
                 (A) (A) (A) (A) (A) (A) (A) (A) (A) (A) (A) (A)
                 (A) (A) (A) (A) (A) (A) (A) (A) (A) (A) (A) (A)
                 (A) (A) (A) (A) (A) (A) (A) (A) (A) (A) (A) (A)
                 (A) (A) (A) (A) (A) (A) (A) (A) (A) (A) (A)
       Virtual   (A) (A) (A) (A) (A) (A) (A) (A) (A) (A) (A) (A)
                 (A) (A) (A) (A) (A) (A) (A) (A) (A) (A) (A) (A)
                 (A) (A) (A) (A) (A) (A) (A) (A) (A) (A) (A) (A)
                 (A) (A) (A) (A) (A) (A) (A) (A) (A) (A) (A) (A)
                 (A) (A) (A) (A) (A) (A) (A) (A) (A) (A) (A) (A)
                 (A) (A) (A) (A) (A) (A) (A) (A) (A) (A) (A) (A)
                 (A) (A) (A) (A) (A) (A) (A) (A) (A) (A) (A) (A)
                 (A) (A) (A) (A) (A) (A) (A) (A) (A) (A) (A) (A)
                 (A) (A) (A) (A) (A) (A) (A) (A) (A) (A) (A) (A)
                 (A) (A) (A) (A) (A) (A) (A) (A) (A) (A) (A) (A)
                 (A) (A) (A) (A) (A) (A) (A) (A) (A) (A) (A) (A)
                 (A) (A) (A) (A) (A) (A) (A) (A) (A) (A) (A) (A)
                 (A) (A) (A) (A) (A) (A) (A) (A) (A) (A) (A) (A)
                 (A) (A) (A) (A) (A) (A) (A) (A) (A) (A) (A) (A)
                 (A) (A) (A) (A) (A) (A) (A) (A) (A) (A) (A) (A)
                 (A) (A) (A) (A) (A) (A) (A) (A) (A) (A) (A) (A)
                 (A) (A) (A) (A) (A) (A) (A) (A) (A) (A) (A) (A)
                 (A) (A) (A) (A) (A) (A) (A) (A) (A) (A) (A) (A)
                 (A) (A) (A) (A) (A) (A) (A) (A) (A) (A) (A) (A)
                 (A) (A) (A) (A) (A) (A) (A) (A) (A) (A) (A) (A)
                 (A) (A) (A) (A) (A) (A) (A) (A) (A) (A) (A) (A)
                 (A) (A) (A) (A) (A) (A) (A) (A) (A) (A) (A) (A)
                 (A) (A) (A) (A) (A) (A) (A) (A) (A) (A) (A) (A)
                 (A) (A) (A) (A) (A) (A) (A) (A) (A) (A) (A) (A)
                 (A) (A) (A) (A) (A) (A) (A) (A) (A) (A) (A) (A)
                 (A) (A) (A) (A) (A) (A) (A) (A) (A) (A) (A) (A)
                 (A) (A) (A) (A) (A) (A) (A) (A) (A) (A) (A) (A)
                 (A) (A) (A) (A) (A) (A) (A) (A) (A) (A) (A) (A)
                 (A) (A) (A) (A) (A) (A) (A) (A) (A) (A) (A) (A)
                 (A) (A) (A) (A) (A) (A) (A) (A) (A) (A) (A) (A)
                 (A) (A) (A) (A) (A) (A) (A) (A) (A) (A) (A) (A)
                 (A) (A) (A) (A) (A) (A) (A) (A) (A) (A) (A) (A)
                 (A) (A) (A) (A) (A) (A) (A) (A) (A) (A) (A) (A)
                 (A) (A) (A) (A) (A) (A) (A) (A) (A) (A) (A) (A)
                 (A) (A) (A) (A) (A) (A) (A) (A) (A) (A) (A) (A)
                 (A) (A) (A) (A) (A) (A) (A) (A) (A) (A) (A) (A)
                 (A) (A) (A) (A) (A) (A) (A) (A) (A) (A) (A) (A)
                 (A) (A) (A) (A) (A) (A) (A) (A) (A) (A) (A) (A)
                 (A) (A) (A) (A) (A) (A) (A) (A) (A) (A) (A) (A)
                 (A) (A) (A) (A) (A) (A) (A) (A) (A) (A) (A) (A)
                 (A) (A) (A) (A) (A) (A) (A) (A) (A) (A) (A) (A)
                 (A) (A) (A) (A) (A) (A) (A) (A) (A) (A) (A) (A)
                 (A) (A) (A) (A) (A) (A) (A) (A) (A) (A) (A) (A)
                 (A) (A) (A) (A) (A) (A) (A) (A) (A) (A) (A) (A)
                 (A) (A) (A) (A) (A) (A)
 The electronic state of the initial guess is 1-A.
 Requested convergence on RMS density matrix=1.00D-08 within 128 cycles.
 Requested convergence on MAX density matrix=1.00D-06.
 Requested convergence on             energy=1.00D-06.
 No special actions if energy rises.
 Integral accuracy reduced to 1.0D-05 until final iterations.
 Initial convergence to 1.0D-05 achieved.  Increase integral accuracy.
 SCF Done:  E(RB3LYP) =  -895.351252038     A.U. after   14 cycles
             Convg  =    0.8988D-08             -V/T =  2.0093
 Range of M.O.s used for correlation:     1   605
 NBasis=   605 NAE=    71 NBE=    71 NFC=     0 NFV=     0
 NROrb=    605 NOA=    71 NOB=    71 NVA=   534 NVB=   534

 **** Warning!!: The largest alpha MO coefficient is  0.11199707D+02

          IDoAtm=11111111111111111111111111111111111
          Differentiating once with respect to magnetic field using GIAOs.
          Differentiating once with respect to nuclear magnetic moments.
          Differentiating once with respect to Fermi-contact and electric field gradient.
          Electric field/nuclear overlap derivatives assumed to be zero.
 FoFCou: FMM=F IPFlag=           0 FMFlag=           0 FMFlg1=           0
         NFxFlg=           0 DoJE=F BraDBF=F KetDBF=T FulRan=T
         Omega=  0.000000  0.000000  1.000000  0.000000  0.000000 ICntrl=    6100 IOpCl=  0
         NMat0=    1 NMatS0=    1 NMatT0=    0 NMatD0=    1 NMtDS0=    0 NMtDT0=    0
         I1Cent=           7 NGrid=          35.
 Symmetry not used in FoFCou.
          There are   108 degrees of freedom in the 1st order CPHF.  IDoFFX=0.
    108 vectors produced by pass  0 Test12= 3.79D-18 1.00D-11 XBig12= 7.43D+01 3.06D+00.
 AX will form   108 AO Fock derivatives at one time.
    108 vectors produced by pass  1 Test12= 3.79D-18 1.00D-11 XBig12= 3.78D-01 1.46D-01.
    108 vectors produced by pass  2 Test12= 3.79D-18 1.00D-11 XBig12= 3.77D-04 3.44D-03.
    108 vectors produced by pass  3 Test12= 3.79D-18 1.00D-11 XBig12= 3.33D-07 6.10D-05.
    108 vectors produced by pass  4 Test12= 3.79D-18 1.00D-11 XBig12= 3.08D-10 1.65D-06.
    108 vectors produced by pass  5 Test12= 3.79D-18 1.00D-11 XBig12= 2.12D-13 4.25D-08.
     94 vectors produced by pass  6 Test12= 3.79D-18 1.00D-11 XBig12= 1.32D-16 1.14D-09.
      9 vectors produced by pass  7 Test12= 3.79D-18 1.00D-11 XBig12= 7.08D-20 2.15D-11.
 Inverted reduced A of dimension   751 with in-core refinement.
 Calculating GIAO nuclear magnetic shielding tensors.
 SCF GIAO Magnetic shielding tensor (ppm):
  1  C    Isotropic =   125.1012   Anisotropy =    27.8304
   XX=   134.1576   YX=    12.3525   ZX=    -4.5921
   XY=    10.1377   YY=   128.9709   ZY=     1.3482
   XZ=     9.5100   YZ=     5.8258   ZZ=   112.1751
   Eigenvalues:   111.4395   120.2092   143.6548
  2  C    Isotropic =    63.1118   Anisotropy =   162.4378
   XX=   102.7127   YX=    80.2258   ZX=   -13.2703
   XY=   112.0641   YY=    33.0247   ZY=   -47.6254
   XZ=    18.0747   YZ=    -1.4409   ZZ=    53.5980
   Eigenvalues:   -39.3885    57.3202   171.4037
  3  C    Isotropic =    63.1372   Anisotropy =   162.0968
   XX=    99.8180   YX=    73.5822   ZX=    37.0481
   XY=   106.7404   YY=    19.9255   ZY=    51.8277
   XZ=    13.6216   YZ=     1.8319   ZZ=    69.6680
   Eigenvalues:   -39.4749    57.6847   171.2017
  4  C    Isotropic =   124.9754   Anisotropy =    27.9213
   XX=   133.8248   YX=    11.0273   ZX=     9.9904
   XY=    12.1076   YY=   128.9638   ZY=     4.3004
   XZ=    -4.5530   YZ=    -0.0982   ZZ=   112.1374
   Eigenvalues:   111.7614   119.5751   143.5895
  5  C    Isotropic =    39.0923   Anisotropy =    75.6566
   XX=   -17.9643   YX=   -34.1536   ZX=    28.9880
   XY=   -32.0183   YY=    65.8810   ZY=    29.3120
   XZ=    33.7776   YZ=    14.3562   ZZ=    69.3603
   Eigenvalues:   -41.7407    69.4876    89.5300
  6  C    Isotropic =    38.0330   Anisotropy =    72.3288
   XX=    -9.4354   YX=   -22.6863   ZX=   -44.5564
   XY=   -20.5856   YY=    75.7351   ZY=   -26.6122
   XZ=   -47.0557   YZ=   -13.3847   ZZ=    47.7991
   Eigenvalues:   -41.8213    69.6681    86.2521
  7  H    Isotropic =    26.8674   Anisotropy =     7.7580
   XX=    25.6180   YX=     0.5705   ZX=     3.7587
   XY=     1.1493   YY=    24.0454   ZY=     0.1392
   XZ=     1.5492   YZ=    -0.5085   ZZ=    30.9387
   Eigenvalues:    23.3839    25.1789    32.0394
  8  H    Isotropic =    25.2659   Anisotropy =     2.5929
   XX=    25.8313   YX=    -0.9706   ZX=    -1.3630
   XY=     3.3074   YY=    25.1226   ZY=    -1.5791
   XZ=    -0.1075   YZ=     0.8861   ZZ=    24.8439
   Eigenvalues:    24.1919    24.6113    26.9945
  9  H    Isotropic =    25.3129   Anisotropy =     2.0320
   XX=    25.5146   YX=    -1.2083   ZX=     1.0561
   XY=     2.9750   YY=    24.9478   ZY=     1.8840
   XZ=     0.3817   YZ=    -1.2248   ZZ=    25.4764
   Eigenvalues:    24.2755    24.9957    26.6676
 10  H    Isotropic =    26.9021   Anisotropy =     8.0711
   XX=    26.2092   YX=     1.5743   ZX=    -4.0622
   XY=     1.6971   YY=    24.3031   ZY=    -1.5965
   XZ=    -2.0019   YZ=    -0.9353   ZZ=    30.1939
   Eigenvalues:    23.3214    25.1021    32.2828
 11  C    Isotropic =   141.2955   Anisotropy =    27.9171
   XX=   150.6818   YX=   -15.9419   ZX=    -1.5082
   XY=   -16.2461   YY=   131.8086   ZY=    -2.1723
   XZ=    -1.6540   YZ=    -2.1009   ZZ=   141.3962
   Eigenvalues:   122.2251   141.7545   159.9070
 12  O    Isotropic =    31.2382   Anisotropy =   469.5626
   XX=   -68.3624   YX=   -90.2637   ZX=   -51.8465
   XY=  -108.4167   YY=   294.2043   ZY=   118.0782
   XZ=   -46.6726   YZ=    80.0969   ZZ=  -132.1274
   Eigenvalues:  -163.9721   -86.5932   344.2799
 13  O    Isotropic =    27.1861   Anisotropy =   459.4755
   XX=   -76.8604   YX=   -94.7379   ZX=    46.1803
   XY=  -107.5143   YY=   308.3994   ZY=   -19.6502
   XZ=    25.0474   YZ=    18.4449   ZZ=  -149.9808
   Eigenvalues:  -168.0435   -83.9014   333.5031
 14  N    Isotropic =   116.3557   Anisotropy =    70.3703
   XX=   142.8942   YX=    20.4694   ZX=    32.2746
   XY=    10.4489   YY=   101.4260   ZY=    15.2307
   XZ=    20.6261   YZ=    14.2600   ZZ=   104.7469
   Eigenvalues:    86.8700    98.9278   163.2692
 15  N    Isotropic =   116.6963   Anisotropy =    72.1188
   XX=   146.9397   YX=    27.5382   ZX=   -22.5245
   XY=    19.2008   YY=   112.9726   ZY=   -12.3099
   XZ=   -13.1916   YZ=   -10.2171   ZZ=    90.1767
   Eigenvalues:    84.0478   101.2656   164.7756
 16  N    Isotropic =    87.1521   Anisotropy =    75.9303
   XX=    82.4114   YX=   -14.0760   ZX=    -9.7714
   XY=   -17.9032   YY=   131.6739   ZY=    10.0085
   XZ=     0.6994   YZ=    10.4594   ZZ=    47.3709
   Eigenvalues:    45.9431    77.7408   137.7723
 17  H    Isotropic =    30.1571   Anisotropy =    11.2121
   XX=    35.3401   YX=     3.1888   ZX=     0.8970
   XY=     5.7428   YY=    28.3549   ZY=     0.5458
   XZ=     1.1221   YZ=     0.4116   ZZ=    26.7764
   Eigenvalues:    26.1778    26.6617    37.6318
 18  H    Isotropic =    29.6951   Anisotropy =    11.3522
   XX=    34.7048   YX=    -5.3614   ZX=    -0.1669
   XY=    -4.0148   YY=    28.6622   ZY=     0.1396
   XZ=    -0.0800   YZ=     0.1021   ZZ=    25.7182
   Eigenvalues:    25.7103    26.1118    37.2632
 19  C    Isotropic =   133.7739   Anisotropy =    25.6286
   XX=   147.4416   YX=    -4.2007   ZX=    10.3136
   XY=    -5.9578   YY=   137.4356   ZY=     2.6958
   XZ=     5.1705   YZ=     0.3963   ZZ=   116.4444
   Eigenvalues:   114.3017   136.1603   150.8596
 20  H    Isotropic =    26.8167   Anisotropy =     4.5628
   XX=    26.2115   YX=     0.4481   ZX=     1.2776
   XY=     0.6706   YY=    24.5857   ZY=     0.1043
   XZ=     0.3781   YZ=    -0.9661   ZZ=    29.6528
   Eigenvalues:    24.3274    26.2642    29.8585
 21  C    Isotropic =   172.6875   Anisotropy =    28.4698
   XX=   171.5201   YX=     0.3521   ZX=    -2.5324
   XY=    -6.1304   YY=   188.6461   ZY=    -7.4767
   XZ=    -5.0968   YZ=   -12.1815   ZZ=   157.8963
   Eigenvalues:   153.8840   172.5112   191.6674
 22  H    Isotropic =    30.3962   Anisotropy =     9.2856
   XX=    28.6268   YX=    -1.8787   ZX=    -1.2242
   XY=    -3.3147   YY=    35.6496   ZY=     0.9686
   XZ=    -0.4853   YZ=     0.3296   ZZ=    26.9122
   Eigenvalues:    26.5343    28.0677    36.5866
 23  H    Isotropic =    30.5022   Anisotropy =     9.2154
   XX=    32.5030   YX=     5.3838   ZX=     1.5871
   XY=     3.2982   YY=    31.9791   ZY=     0.0383
   XZ=     0.6619   YZ=    -0.2965   ZZ=    27.0246
   Eigenvalues:    26.4525    28.4083    36.6459
 24  H    Isotropic =    28.6946   Anisotropy =     6.4477
   XX=    25.2098   YX=     2.2261   ZX=    -0.3792
   XY=     1.7441   YY=    28.0584   ZY=    -1.7785
   XZ=     0.2435   YZ=     0.0431   ZZ=    32.8156
   Eigenvalues:    24.1776    28.9131    32.9931
 25  C    Isotropic =    53.0881   Anisotropy =   177.1650
   XX=    82.7119   YX=   101.6758   ZX=    -6.7276
   XY=    97.8226   YY=    56.1061   ZY=   -17.8875
   XZ=    -1.4108   YZ=   -12.8603   ZZ=    20.4464
   Eigenvalues:   -32.7328    20.7990   171.1981
 26  C    Isotropic =    66.5071   Anisotropy =   174.9753
   XX=   108.2786   YX=    85.1959   ZX=   -32.8781
   XY=    78.8767   YY=    91.7705   ZY=    21.1735
   XZ=   -33.0218   YZ=    19.0705   ZZ=    -0.5277
   Eigenvalues:   -29.9424    46.3064   183.1573
 27  C    Isotropic =    65.9940   Anisotropy =   151.6462
   XX=   116.4965   YX=    57.8889   ZX=    10.6261
   XY=    57.6856   YY=    99.3439   ZY=   -28.4160
   XZ=     7.5946   YZ=   -28.1735   ZZ=   -17.8582
   Eigenvalues:   -28.1939    59.0846   167.0915
 28  C    Isotropic =    67.3173   Anisotropy =   170.7998
   XX=   122.6080   YX=    66.7965   ZX=     7.0841
   XY=    66.3338   YY=   103.0078   ZY=   -32.1843
   XZ=     8.1520   YZ=   -30.5683   ZZ=   -23.6638
   Eigenvalues:   -34.9309    55.6990   181.1839
 29  H    Isotropic =    23.1534   Anisotropy =     9.3334
   XX=    24.3510   YX=    -3.4676   ZX=    -3.0511
   XY=    -3.9702   YY=    22.0204   ZY=     3.2344
   XZ=    -2.2166   YZ=     2.3709   ZZ=    23.0887
   Eigenvalues:    19.0696    21.0149    29.3756
 30  C    Isotropic =    68.1899   Anisotropy =   167.9602
   XX=   105.8292   YX=    79.2852   ZX=   -37.7819
   XY=    78.8753   YY=    94.3069   ZY=    24.0080
   XZ=   -38.0531   YZ=    23.7975   ZZ=     4.4338
   Eigenvalues:   -31.8541    56.2605   180.1634
 31  H    Isotropic =    24.1386   Anisotropy =     8.0277
   XX=    25.5138   YX=    -3.4012   ZX=     2.4399
   XY=    -3.8762   YY=    23.6354   ZY=    -1.9117
   XZ=     1.7330   YZ=    -1.4681   ZZ=    23.2665
   Eigenvalues:    20.8144    22.1109    29.4904
 32  C    Isotropic =    67.9820   Anisotropy =   171.4715
   XX=    88.4416   YX=   104.9910   ZX=     1.4429
   XY=   105.5163   YY=    62.7374   ZY=   -16.1031
   XZ=     2.0966   YZ=   -15.9438   ZZ=    52.7671
   Eigenvalues:   -32.4901    54.1398   182.2963
 33  H    Isotropic =    24.1299   Anisotropy =     5.6022
   XX=    24.4927   YX=    -3.4373   ZX=     0.2220
   XY=    -3.5145   YY=    24.1189   ZY=    -0.4178
   XZ=     0.4899   YZ=    -0.4726   ZZ=    23.7781
   Eigenvalues:    20.8227    23.7022    27.8647
 34  H    Isotropic =    24.2235   Anisotropy =     4.8943
   XX=    23.9467   YX=    -2.9183   ZX=    -0.5294
   XY=    -2.9617   YY=    23.8505   ZY=     1.2424
   XZ=    -0.6511   YZ=     1.2427   ZZ=    24.8734
   Eigenvalues:    20.8980    24.2862    27.4864
 35  H    Isotropic =    24.2128   Anisotropy =     4.1584
   XX=    23.1141   YX=    -1.7769   ZX=     0.5711
   XY=    -1.7459   YY=    22.6590   ZY=    -0.0790
   XZ=     0.5830   YZ=    -0.0857   ZZ=    26.8653
   Eigenvalues:    21.0927    24.5606    26.9850
          There are   245 degrees of freedom in the 1st order CPHF.  IDoFFX=0.
    210 vectors produced by pass  0 Test12= 3.79D-18 1.00D-11 XBig12= 3.26D+01 1.89D+00.
    210 vectors produced by pass  1 Test12= 3.79D-18 1.00D-11 XBig12= 2.17D-01 1.20D-01.
    210 vectors produced by pass  2 Test12= 3.79D-18 1.00D-11 XBig12= 1.19D-03 3.35D-03.
    210 vectors produced by pass  3 Test12= 3.79D-18 1.00D-11 XBig12= 2.28D-06 1.97D-04.
    210 vectors produced by pass  4 Test12= 3.79D-18 1.00D-11 XBig12= 3.98D-09 8.76D-06.
    210 vectors produced by pass  5 Test12= 3.79D-18 1.00D-11 XBig12= 3.93D-12 2.50D-07.
    206 vectors produced by pass  6 Test12= 3.79D-18 1.00D-11 XBig12= 1.93D-15 5.03D-09.
     76 vectors produced by pass  7 Test12= 3.79D-18 1.00D-11 XBig12= 1.14D-18 7.87D-11.
 Inverted reduced A of dimension  1542 with in-core refinement.
 There are a total of      279644 grid points.
 ElSum from          density=      284.0007864270
 Fermi Contact (FC) contribution to K (Hz):
                1             2             3             4             5 
      1  0.000000D+00
      2  0.237896D+02  0.000000D+00
      3  0.130009D+00  0.502731D+02  0.000000D+00
      4 -0.759508D+01  0.132871D+00  0.238133D+02  0.000000D+00
      5  0.944399D-01 -0.792013D-01 -0.170081D+00 -0.255054D+00  0.000000D+00
      6 -0.237636D+00 -0.171002D+00 -0.794102D-01  0.744313D-01 -0.207480D+01
      7  0.194398D+02  0.163479D+00  0.616913D+00  0.889346D+00  0.211579D-01
      8  0.955770D+00  0.175972D+02  0.154562D+00  0.927773D+00  0.111682D-01
      9  0.926218D+00  0.155132D+00  0.176008D+02  0.958008D+00  0.155343D-02
     10  0.886029D+00  0.618202D+00  0.165179D+00  0.194460D+02 -0.257529D-01
     11  0.215656D+02 -0.589091D+00 -0.575480D+00  0.215566D+02  0.135571D+01
     12  0.139889D+00  0.328566D-01  0.622637D-01  0.348307D+00 -0.330400D+02
     13  0.367332D+00  0.590856D-01  0.316171D-01  0.138716D+00  0.709390D+00
     14  0.126825D+01  0.159583D+01 -0.141793D+01  0.720381D+01  0.164007D+02
     15  0.713001D+01 -0.144082D+01  0.159397D+01  0.124337D+01 -0.525240D+00
     16  0.225221D+00 -0.109797D+00 -0.105347D+00  0.181456D+00  0.249690D+02
     17  0.236264D+00  0.141631D+00  0.141635D+00  0.236312D+00  0.138299D+00
     18  0.137694D-01  0.847544D+00  0.846229D+00  0.135114D-01 -0.127929D-01
     19 -0.722564D-02  0.116906D-01  0.591109D-02 -0.194102D-01  0.601773D+00
     20  0.174878D-02  0.237971D-02 -0.181154D-02  0.168111D-01  0.385914D+00
     21  0.461190D-01  0.978050D-03  0.339719D-02 -0.923398D-02  0.804363D+00
     22 -0.390324D-03 -0.934064D-04 -0.377824D-04 -0.311326D-03 -0.965994D-02
     23  0.162553D-02  0.591627D-03  0.884709D-03 -0.172911D-02  0.888376D-01
     24 -0.562546D-04 -0.125980D-03 -0.201610D-03  0.463513D-04 -0.314378D-01
     25  0.318867D-01  0.325634D-02 -0.181180D-02  0.641891D-01  0.188056D+00
     26 -0.191832D-02 -0.732936D-03 -0.275684D-03  0.120265D-01 -0.178621D-01
     27  0.814090D-02 -0.564472D-03 -0.506173D-03  0.291359D-02 -0.238149D-01
     28 -0.196548D-02  0.226280D-03  0.220533D-03  0.144063D-02 -0.182134D-02
     29 -0.408946D-03  0.162640D-04  0.177396D-03  0.868292D-03 -0.447254D-03
     30  0.333838D-02 -0.290920D-03  0.404925D-03 -0.161282D-02 -0.661572D-02
     31  0.110271D-02 -0.751811D-04  0.548589D-04 -0.572419D-03 -0.230683D-02
     32  0.199615D-02 -0.332381D-04 -0.368262D-03  0.260010D-02  0.554883D-02
     33  0.369714D-03 -0.184822D-04 -0.402269D-04  0.216723D-03  0.812610D-03
     34  0.326228D-03 -0.576130D-05 -0.919159D-04  0.673763D-03  0.976002D-03
     35 -0.267844D-03  0.829024D-05  0.381698D-04 -0.309219D-03 -0.851496D-03
                6             7             8             9            10 
      6  0.000000D+00
      7 -0.265504D-01  0.000000D+00
      8  0.125982D-02  0.591528D-01  0.000000D+00
      9  0.111578D-01  0.420549D-01  0.173957D+00  0.000000D+00
     10  0.221826D-01  0.251762D-01  0.423164D-01  0.592106D-01  0.000000D+00
     11  0.134365D+01  0.479803D-01  0.402951D+00  0.403176D+00  0.463925D-01
     12  0.415262D+00  0.477857D-01  0.376022D-02  0.429602D-01  0.259061D-01
     13 -0.322476D+02  0.275002D-01  0.426667D-01  0.388246D-02  0.493903D-01
     14 -0.412048D+00  0.641496D+00 -0.154566D+00  0.410311D-01  0.175438D+01
     15  0.163456D+02  0.173939D+01  0.408852D-01 -0.155023D+00  0.644409D+00
     16  0.265542D+02 -0.979290D-02 -0.899374D-02 -0.923545D-02 -0.971960D-02
     17  0.140775D+00  0.426056D-01 -0.985251D-02 -0.985136D-02  0.425447D-01
     18 -0.128344D-01  0.469369D-01  0.137251D-01  0.136655D-01  0.470211D-01
     19  0.732413D+00  0.270876D-02 -0.409961D-03  0.914706D-04 -0.562598D-03
     20  0.729893D+00 -0.400732D-03  0.686359D-04 -0.549168D-04 -0.296294D-03
     21  0.647133D-01  0.160522D-02  0.306670D-03  0.115037D-03 -0.450584D-03
     22 -0.851148D-02  0.103757D-04  0.164446D-05 -0.359456D-05  0.150143D-04
     23 -0.845192D-02  0.368209D-03  0.993488D-04  0.456450D-04  0.253690D-04
     24  0.148481D-01 -0.273510D-04  0.920982D-05 -0.213631D-05 -0.331301D-04
     25  0.166032D-01 -0.736554D-03 -0.287488D-03 -0.582648D-03 -0.155191D-02
     26 -0.251621D-01 -0.158371D-03 -0.644591D-03  0.401550D-04  0.139748D-03
     27  0.391812D-01 -0.278467D-03 -0.170348D-03 -0.792260D-04 -0.203232D-03
     28 -0.104031D-01  0.120483D-03  0.151555D-03  0.455389D-05  0.149615D-04
     29  0.438045D-03  0.236079D-04  0.161174D-03 -0.245370D-04 -0.261477D-04
     30  0.160036D-01 -0.470257D-04  0.157749D-03 -0.653520D-04  0.714866D-04
     31  0.371586D-02 -0.157859D-04  0.172906D-04 -0.946631D-05  0.268832D-04
     32 -0.107978D-02 -0.126570D-03 -0.152273D-03 -0.132033D-04 -0.949626D-04
     33  0.655607D-04 -0.156060D-04 -0.180643D-04  0.000000D+00  0.884352D-05
     34 -0.372904D-03 -0.994881D-05 -0.215394D-04  0.000000D+00 -0.278477D-04
     35 -0.210721D-03  0.154035D-04  0.139756D-04  0.296340D-05  0.195632D-04
               11            12            13            14            15 
     11  0.000000D+00
     12 -0.177893D-01  0.000000D+00
     13 -0.206646D-01  0.375791D+00  0.000000D+00
     14  0.374299D+01  0.371157D+00  0.267645D+00  0.000000D+00
     15  0.360589D+01  0.257864D+00  0.345170D+00 -0.347502D+02  0.000000D+00
     16  0.569825D-01  0.748946D+00  0.117647D+01  0.716561D+01  0.756802D+01
     17  0.182321D+02 -0.496549D-02 -0.561849D-02  0.148685D+01  0.148564D+01
     18  0.185661D+02 -0.834781D-03 -0.123637D-02  0.206599D+00  0.207378D+00
     19  0.169081D+00  0.710516D+00 -0.271496D+00  0.290840D+00  0.949064D+00
     20 -0.110340D-02  0.138034D-01 -0.812884D-02 -0.571292D-01  0.240886D-01
     21 -0.548061D-02 -0.745276D-02  0.131690D+01 -0.341003D-01 -0.131565D+00
     22  0.590901D-03  0.369153D-02 -0.123075D-01  0.196566D-02 -0.306196D-02
     23  0.423577D-02  0.462960D-02  0.498730D-01  0.223335D-01  0.188896D-01
     24  0.268594D-03  0.303867D-01  0.605173D-01  0.180750D-02  0.149077D-01
     25 -0.108670D-01  0.127609D+00  0.151284D+00  0.176404D+00  0.654913D-01
     26  0.430073D-02  0.332170D-01  0.152519D+01  0.289352D-01  0.135221D+00
     27  0.192976D-02  0.446557D-01  0.251543D-01  0.397142D-01  0.369993D-01
     28 -0.174221D-02  0.995010D-02 -0.391002D-02 -0.219388D-01 -0.291698D-01
     29 -0.245792D-03  0.360889D-03  0.131336D-01 -0.683090D-03 -0.138366D-01
     30 -0.158194D-02  0.105797D-01  0.136041D-01 -0.279890D-01  0.309682D-02
     31 -0.276145D-03  0.328623D-01  0.443099D-02 -0.737604D-02  0.502446D-02
     32  0.204028D-02  0.762232D-04  0.521621D-01  0.330142D-01  0.353967D-01
     33  0.904016D-04  0.520628D-03  0.329643D-02  0.156453D-02  0.413432D-02
     34  0.106733D-03  0.400927D-03 -0.107469D-02  0.507479D-02  0.158335D-02
     35 -0.238945D-03  0.161300D-02  0.115986D-01 -0.426523D-02 -0.344652D-02
               16            17            18            19            20 
     16  0.000000D+00
     17  0.264014D+00  0.000000D+00
     18  0.218514D-01 -0.218830D+00  0.000000D+00
     19  0.124030D+02  0.426284D-01  0.694654D-03  0.000000D+00
     20 -0.428984D-01 -0.140941D-02 -0.118595D-03  0.201615D+02  0.000000D+00
     21  0.405431D+00 -0.279053D-02  0.282660D-03  0.220912D+02 -0.324489D+00
     22  0.223341D+00  0.767973D-04 -0.188587D-05 -0.253883D+00  0.107277D+00
     23  0.156323D+01  0.776676D-03  0.244184D-03  0.305831D+00  0.108772D+00
     24  0.171145D+00  0.251571D-03  0.341358D-04 -0.467260D+00  0.425413D+00
     25 -0.229545D+01  0.133282D-02 -0.355955D-03  0.238058D+02 -0.432671D+00
     26  0.570031D+00  0.100835D-02 -0.429007D-04 -0.155172D+00  0.561400D+00
     27  0.163963D+01  0.188893D-02  0.137726D-04  0.937385D+00  0.675224D+00
     28 -0.559368D+00 -0.821017D-03  0.274567D-04  0.177984D+01  0.871453D-01
     29 -0.956170D-01 -0.116787D-03  0.128863D-04  0.379292D+00 -0.696387D-02
     30 -0.343815D+00 -0.369505D-03  0.110613D-04  0.244179D+01  0.165603D-01
     31 -0.731650D-01 -0.976949D-04  0.113890D-05  0.514403D+00 -0.100697D-01
     32  0.659615D+00  0.102441D-02 -0.311977D-04 -0.419700D+00  0.104617D-01
     33  0.345838D-01  0.601067D-04 -0.484863D-05  0.732540D-01  0.123653D-01
     34  0.516445D-01  0.105479D-03 -0.301111D-05  0.792560D-01  0.213753D-02
     35 -0.825864D-01 -0.128907D-03  0.303374D-05  0.593158D-01 -0.129786D-02
               21            22            23            24            25 
     21  0.000000D+00
     22  0.163693D+02  0.000000D+00
     23  0.161517D+02 -0.392554D+00  0.000000D+00
     24  0.167539D+02 -0.362038D+00 -0.391362D+00  0.000000D+00
     25 -0.930055D+00  0.831420D+00  0.746181D-01  0.262170D+00  0.000000D+00
     26  0.790922D+00  0.172226D-01 -0.258863D-02 -0.808796D-02  0.424595D+02
     27  0.115137D+01  0.471834D-01 -0.124408D-01 -0.258674D-01  0.432590D+02
     28 -0.215562D+00 -0.239287D-01 -0.637954D-03  0.623301D-02 -0.646367D+00
     29 -0.277950D-01 -0.347541D-02 -0.173115D-03 -0.236424D-02 -0.768180D-01
     30 -0.809411D-01  0.469188D-03 -0.353213D-02  0.462080D-02 -0.585690D+00
     31 -0.363744D-01 -0.245242D-02  0.771771D-04  0.377982D-03 -0.245151D-01
     32  0.294376D+00  0.358708D-01  0.375094D-02 -0.386998D-03  0.329624D+01
     33  0.143282D-01  0.301889D-02  0.206695D-03  0.256067D-03  0.802610D+00
     34  0.285628D-01  0.420611D-02 -0.397431D-04 -0.678162D-03  0.789139D+00
     35 -0.360708D-01 -0.415795D-02 -0.431268D-03  0.108593D-02 -0.234142D+00
               26            27            28            29            30 
     26  0.000000D+00
     27 -0.213684D+00  0.000000D+00
     28  0.446443D+02  0.310856D+01  0.000000D+00
     29  0.164027D+02  0.724225D+00 -0.865487D-01  0.000000D+00
     30  0.303334D+01  0.444293D+02 -0.876921D+00 -0.194121D+00  0.000000D+00
     31  0.639299D+00  0.159746D+02 -0.180519D+00  0.548881D-01 -0.382412D-01
     32 -0.103960D+01 -0.105149D+01  0.439897D+02  0.814520D+00  0.442517D+02
     33  0.613602D-01 -0.210922D+00  0.162003D+02  0.221504D+00  0.829383D+00
     34 -0.208550D+00  0.261945D-01  0.818704D+00  0.192140D-01  0.161934D+02
     35  0.776063D+00  0.783378D+00  0.796736D-02  0.344101D-01 -0.419899D-03
               31            32            33            34            35 
     31  0.000000D+00
     32  0.789038D+00  0.000000D+00
     33  0.180540D-01  0.168107D-01  0.000000D+00
     34  0.211272D+00 -0.174011D-01  0.412765D-01  0.000000D+00
     35  0.350228D-01  0.161297D+02  0.202963D+00  0.207643D+00  0.000000D+00
 Fermi Contact (FC) contribution to J (Hz):
                1             2             3             4             5 
      1  0.000000D+00
      2  0.469493D+02  0.000000D+00
      3  0.256577D+00  0.992152D+02  0.000000D+00
      4 -0.149891D+02  0.262224D+00  0.469962D+02  0.000000D+00
      5  0.186379D+00 -0.156306D+00 -0.335658D+00 -0.503355D+00  0.000000D+00
      6 -0.468980D+00 -0.337477D+00 -0.156718D+00  0.146892D+00 -0.409466D+01
      7  0.234162D+02  0.196918D+00  0.743101D+00  0.107126D+01  0.254857D-01
      8  0.749984D+01  0.138083D+03  0.121283D+01  0.728014D+01  0.876356D-01
      9  0.726795D+01  0.121731D+01  0.138112D+03  0.751740D+01  0.121896D-01
     10  0.106726D+01  0.744654D+00  0.198966D+00  0.234237D+02 -0.310205D-01
     11  0.425603D+02 -0.116259D+01 -0.113572D+01  0.425425D+02  0.267553D+01
     12 -0.148867D+00 -0.349653D-01 -0.662599D-01 -0.370662D+00  0.351606D+02
     13 -0.390907D+00 -0.628777D-01 -0.336463D-01 -0.147619D+00 -0.754919D+00
     14  0.719364D+00  0.905176D+00 -0.804268D+00  0.408609D+01  0.930267D+01
     15  0.404423D+01 -0.817250D+00  0.904122D+00  0.705257D+00 -0.297923D+00
     16  0.127748D+00 -0.622785D-01 -0.597543D-01  0.102924D+00  0.141627D+02
     17  0.185394D+01  0.111136D+01  0.111140D+01  0.185432D+01  0.108522D+01
     18  0.108047D+00  0.665060D+01  0.664028D+01  0.106023D+00 -0.100385D+00
     19 -0.142600D-01  0.230716D-01  0.116657D-01 -0.383065D-01  0.118761D+01
     20  0.137225D-01  0.186733D-01 -0.142150D-01  0.131915D+00  0.302823D+01
     21  0.910170D-01  0.193021D-02  0.670443D-02 -0.182235D-01  0.158743D+01
     22 -0.306283D-02 -0.732951D-03 -0.296475D-03 -0.244294D-02 -0.758006D-01
     23  0.127554D-01  0.464244D-02  0.694223D-02 -0.135682D-01  0.697100D+00
     24 -0.441425D-03 -0.988552D-03 -0.158201D-02  0.363714D-03 -0.246689D+00
     25  0.629293D-01  0.642647D-02 -0.357562D-02  0.126679D+00  0.371132D+00
     26 -0.378586D-02 -0.144647D-02 -0.544069D-03  0.237347D-01 -0.352513D-01
     27  0.160663D-01 -0.111400D-02 -0.998945D-03  0.575005D-02 -0.469993D-01
     28 -0.387893D-02  0.446570D-03  0.435227D-03  0.284313D-02 -0.359446D-02
     29 -0.320896D-02  0.127622D-03  0.139201D-02  0.681340D-02 -0.350956D-02
     30  0.658838D-02 -0.574137D-03  0.799130D-03 -0.318294D-02 -0.130563D-01
     31  0.865286D-02 -0.589939D-03  0.430472D-03 -0.449171D-02 -0.181014D-01
     32  0.393945D-02 -0.655962D-04 -0.726775D-03  0.513137D-02  0.109508D-01
     33  0.290111D-02 -0.145028D-03 -0.315656D-03  0.170060D-02  0.637648D-02
     34  0.255988D-02 -0.452084D-04 -0.721255D-03  0.528695D-02  0.765859D-02
     35 -0.210175D-02  0.650527D-04  0.299515D-03 -0.242641D-02 -0.668161D-02
                6             7             8             9            10 
      6  0.000000D+00
      7 -0.319812D-01  0.000000D+00
      8  0.988569D-02  0.283305D+00  0.000000D+00
      9  0.875545D-01  0.201417D+00  0.542744D+01  0.000000D+00
     10  0.267200D-01  0.185096D-01  0.202669D+00  0.283582D+00  0.000000D+00
     11  0.265172D+01  0.577945D-01  0.316192D+01  0.316368D+01  0.558820D-01
     12 -0.441913D+00 -0.310381D-01 -0.159105D-01 -0.181776D+00 -0.168267D-01
     13  0.343173D+02 -0.178621D-01 -0.180534D+00 -0.164277D-01 -0.320803D-01
     14 -0.233719D+00  0.222086D+00 -0.348590D+00  0.925368D-01  0.607367D+00
     15  0.927145D+01  0.602178D+00  0.922078D-01 -0.349621D+00  0.223094D+00
     16  0.150619D+02 -0.339030D-02 -0.202835D-01 -0.208286D-01 -0.336492D-02
     17  0.110464D+01  0.204055D+00 -0.307398D+00 -0.307362D+00  0.203763D+00
     18 -0.100710D+00  0.224799D+00  0.428222D+00  0.426362D+00  0.225202D+00
     19  0.144544D+01  0.326283D-02 -0.321692D-02  0.717761D-03 -0.677676D-03
     20  0.572740D+01 -0.191926D-02  0.214144D-02 -0.171340D-02 -0.141906D-02
     21  0.127713D+00  0.193356D-02  0.240641D-02  0.902681D-03 -0.542750D-03
     22 -0.667888D-01  0.496931D-04  0.513070D-04 -0.112150D-03  0.719091D-04
     23 -0.663214D-01  0.176349D-02  0.309968D-02  0.142412D-02  0.121502D-03
     24  0.116512D+00 -0.130994D-03  0.287346D-03 -0.666527D-04 -0.158673D-03
     25  0.327669D-01 -0.887214D-03 -0.225589D-02 -0.457198D-02 -0.186935D-02
     26 -0.496580D-01 -0.190765D-03 -0.505805D-02  0.315092D-03  0.168333D-03
     27  0.773252D-01 -0.335427D-03 -0.133671D-02 -0.621679D-03 -0.244802D-03
     28 -0.205308D-01  0.145128D-03  0.118924D-02  0.357340D-04  0.180218D-04
     29  0.343730D-02  0.113068D-03  0.502863D-02 -0.765553D-03 -0.125232D-03
     30  0.315835D-01 -0.566446D-04  0.123784D-02 -0.512811D-03  0.861090D-04
     31  0.291580D-01 -0.756049D-04  0.539466D-03 -0.295349D-03  0.128754D-03
     32 -0.213097D-02 -0.152460D-03 -0.119487D-02 -0.103605D-03 -0.114387D-03
     33  0.514449D-03 -0.747434D-04 -0.563604D-03 -0.121923D-04  0.423550D-04
     34 -0.292614D-02 -0.476487D-04 -0.672029D-03  0.160891D-04 -0.133373D-03
     35 -0.165351D-02  0.737732D-04  0.436038D-03  0.924580D-04  0.936958D-04
               11            12            13            14            15 
     11  0.000000D+00
     12  0.189311D-01  0.000000D+00
     13  0.219908D-01  0.215643D+00  0.000000D+00
     14  0.212307D+01 -0.113521D+00 -0.818611D-01  0.000000D+00
     15  0.204531D+01 -0.788696D-01 -0.105573D+00 -0.566508D+01  0.000000D+00
     16  0.323212D-01 -0.229070D+00 -0.359831D+00  0.116816D+01  0.123376D+01
     17  0.143066D+03  0.210103D-01  0.237733D-01  0.335327D+01  0.335054D+01
     18  0.145686D+03  0.353219D-02  0.523142D-02  0.465939D+00  0.467697D+00
     19  0.333685D+00 -0.756118D+00  0.288921D+00  0.164968D+00  0.538321D+00
     20 -0.865824D-02 -0.584059D-01  0.343954D-01 -0.128843D+00  0.543268D-01
     21 -0.108161D-01  0.793108D-02 -0.140142D+01 -0.193421D-01 -0.746254D-01
     22  0.463674D-02 -0.156199D-01  0.520763D-01  0.443311D-02 -0.690560D-02
     23  0.332377D-01 -0.195891D-01 -0.211026D+00  0.503683D-01  0.426013D-01
     24  0.210763D-02 -0.128574D+00 -0.256065D+00  0.407643D-02  0.336210D-01
     25 -0.214462D-01 -0.135799D+00 -0.160993D+00  0.100058D+00  0.371475D-01
     26  0.848760D-02 -0.353489D-01 -0.162308D+01  0.164124D-01  0.766988D-01
     27  0.380843D-02 -0.475218D-01 -0.267687D-01  0.225264D-01  0.209865D-01
     28 -0.343829D-02 -0.105887D-01  0.416097D-02 -0.124439D-01 -0.165454D-01
     29 -0.192870D-02 -0.152702D-02 -0.555717D-01 -0.154056D-02 -0.312054D-01
     30 -0.312201D-02 -0.112587D-01 -0.144772D-01 -0.158757D-01  0.175655D-02
     31 -0.216689D-02 -0.139049D+00 -0.187487D-01 -0.166351D-01  0.113316D-01
     32  0.402654D-02 -0.811152D-04 -0.555099D-01  0.187260D-01  0.200774D-01
     33  0.709372D-03 -0.220292D-02 -0.139481D-01  0.352847D-02  0.932408D-02
     34  0.837527D-03 -0.169643D-02  0.454730D-02  0.114451D-01  0.357090D-02
     35 -0.187498D-02 -0.682505D-02 -0.490768D-01 -0.961931D-02 -0.777289D-02
               16            17            18            19            20 
     16  0.000000D+00
     17  0.595427D+00  0.000000D+00
     18  0.492812D-01 -0.682747D+01  0.000000D+00
     19  0.703511D+01  0.334501D+00  0.545088D-02  0.000000D+00
     20 -0.967482D-01 -0.439736D-01 -0.370016D-02  0.158205D+03  0.000000D+00
     21  0.229965D+00 -0.218970D-01  0.221800D-02  0.435975D+02 -0.254623D+01
     22  0.503698D+00  0.239607D-02 -0.588389D-04 -0.199219D+01  0.334705D+01
     23  0.352552D+01  0.242323D-01  0.761854D-02  0.239982D+01  0.339369D+01
     24  0.385980D+00  0.784900D-02  0.106504D-02 -0.366654D+01  0.132729D+02
     25 -0.130201D+01  0.104585D-01 -0.279314D-02  0.469813D+02 -0.339513D+01
     26  0.323329D+00  0.791242D-02 -0.336638D-03 -0.306237D+00  0.440525D+01
     27  0.930017D+00  0.148222D-01  0.108072D-03  0.184995D+01  0.529842D+01
     28 -0.317280D+00 -0.644244D-02  0.215450D-03  0.351256D+01  0.683821D+00
     29 -0.215644D+00 -0.364375D-02  0.402052D-03  0.297627D+01 -0.217273D+00
     30 -0.195016D+00 -0.289947D-02  0.867967D-04  0.481893D+01  0.129947D+00
     31 -0.165008D+00 -0.304808D-02  0.355337D-04  0.403647D+01 -0.314175D+00
     32  0.374142D+00  0.803848D-02 -0.244805D-03 -0.828288D+00  0.820917D-01
     33  0.779963D-01  0.187533D-02 -0.151277D-03  0.574817D+00  0.385797D+00
     34  0.116473D+00  0.329094D-02 -0.939464D-04  0.621914D+00  0.666909D-01
     35 -0.186256D+00 -0.402190D-02  0.946526D-04  0.465446D+00 -0.404932D-01
               21            22            23            24            25 
     21  0.000000D+00
     22  0.128448D+03  0.000000D+00
     23  0.126741D+03 -0.122477D+02  0.000000D+00
     24  0.131466D+03 -0.112956D+02 -0.122105D+02  0.000000D+00
     25 -0.183549D+01  0.652407D+01  0.585521D+00  0.205722D+01  0.000000D+00
     26  0.156090D+01  0.135144D+00 -0.203127D-01 -0.634655D-01  0.837949D+02
     27  0.227226D+01  0.370243D+00 -0.976215D-01 -0.202979D+00  0.853728D+02
     28 -0.425416D+00 -0.187766D+00 -0.500597D-02  0.489098D-01 -0.127562D+01
     29 -0.218105D+00 -0.108433D+00 -0.540119D-02 -0.737641D-01 -0.602784D+00
     30 -0.159739D+00  0.368168D-02 -0.277163D-01  0.362589D-01 -0.115587D+01
     31 -0.285426D+00 -0.765153D-01  0.240792D-02  0.117930D-01 -0.192367D+00
     32  0.580958D+00  0.281475D+00  0.294332D-01 -0.303674D-02  0.650521D+01
     33  0.112432D+00  0.941893D-01  0.644889D-02  0.798929D-02  0.629801D+01
     34  0.224129D+00  0.131230D+00 -0.123998D-02 -0.211586D-01  0.619230D+01
     35 -0.283044D+00 -0.129728D+00 -0.134555D-01  0.338809D-01 -0.183729D+01
               26            27            28            29            30 
     26  0.000000D+00
     27 -0.421711D+00  0.000000D+00
     28  0.881066D+02  0.613483D+01  0.000000D+00
     29  0.128710D+03  0.568293D+01 -0.679139D+00  0.000000D+00
     30  0.598637D+01  0.876824D+02 -0.173063D+01 -0.152325D+01  0.000000D+00
     31  0.501652D+01  0.125351D+03 -0.141651D+01  0.171250D+01 -0.300075D+00
     32 -0.205168D+01 -0.207514D+01  0.868148D+02  0.639146D+01  0.873319D+02
     33  0.481488D+00 -0.165509D+01  0.127122D+03  0.691092D+01  0.650808D+01
     34 -0.163647D+01  0.205545D+00  0.642429D+01  0.599477D+00  0.127068D+03
     35  0.608969D+01  0.614709D+01  0.625191D-01  0.107359D+01 -0.329491D-02
               31            32            33            34            35 
     31  0.000000D+00
     32  0.619151D+01  0.000000D+00
     33  0.563285D+00  0.131912D+00  0.000000D+00
     34  0.659169D+01 -0.136545D+00  0.128783D+01  0.000000D+00
     35  0.109271D+01  0.126568D+03  0.633243D+01  0.647847D+01  0.000000D+00
 Spin-dipolar (SD) contribution to K (Hz):
                1             2             3             4             5 
      1  0.000000D+00
      2  0.357046D+00  0.000000D+00
      3 -0.282747D-01  0.175831D+01  0.000000D+00
      4  0.555657D-02 -0.283185D-01  0.357168D+00  0.000000D+00
      5  0.800280D-03  0.462663D-02 -0.160296D-01  0.184635D-02  0.000000D+00
      6  0.156130D-02 -0.163591D-01  0.441133D-02  0.912905D-03 -0.252070D-01
      7  0.188759D-01  0.158368D-01 -0.793574D-02 -0.157842D-02  0.964714D-03
      8  0.690808D-02  0.400547D-01  0.841279D-02 -0.219776D-02  0.545922D-05
      9 -0.219530D-02  0.839398D-02  0.400849D-01  0.692737D-02 -0.283540D-02
     10 -0.158645D-02 -0.793067D-02  0.158393D-01  0.189825D-01 -0.274310D-02
     11  0.436960D+00 -0.241465D-01 -0.241651D-01  0.437175D+00  0.129055D-01
     12  0.153267D-03 -0.147961D-01 -0.227990D-01 -0.831888D-02  0.128287D+01
     13 -0.842412D-02 -0.231937D-01 -0.140521D-01 -0.368851D-03 -0.844463D-01
     14 -0.412723D-01 -0.395945D-01 -0.185453D+00  0.768651D+00  0.114143D+00
     15  0.767794D+00 -0.185945D+00 -0.388407D-01 -0.417140D-01 -0.123215D-01
     16 -0.306104D-01  0.171604D-02  0.172052D-02 -0.300425D-01  0.168803D+00
     17  0.955489D-02 -0.148394D-02 -0.150582D-02  0.959430D-02  0.248514D-02
     18  0.784431D-02 -0.540574D-03 -0.535863D-03  0.782051D-02  0.205392D-02
     19  0.539658D-02  0.127919D-02  0.572597D-03  0.406304D-02 -0.701807D-02
     20  0.785368D-03  0.193165D-02 -0.142196D-02  0.107000D-02 -0.647147D-02
     21  0.702641D-03 -0.703512D-03  0.106921D-02  0.102719D-02 -0.787056D-02
     22  0.149564D-02 -0.329540D-03  0.543178D-03  0.133405D-02  0.874528D-03
     23  0.575897D-03 -0.204786D-03  0.355730D-03  0.553800D-03 -0.310523D-03
     24  0.855081D-03 -0.125396D-02  0.151421D-02  0.568324D-03  0.251687D-02
     25 -0.259588D-02 -0.119207D-02 -0.785819D-03 -0.318294D-02 -0.742703D-02
     26 -0.486866D-03 -0.268792D-02  0.214058D-02  0.664240D-03  0.214451D-02
     27  0.700668D-03  0.180078D-02 -0.538028D-03  0.302818D-03  0.311954D-03
     28 -0.435336D-03 -0.403783D-03  0.119911D-02 -0.412001D-03 -0.362791D-03
     29 -0.118890D-02 -0.249874D-02  0.302785D-02 -0.520074D-03  0.115436D-02
     30 -0.323415D-03  0.719062D-03  0.239310D-03 -0.453211D-03 -0.453737D-04
     31 -0.261743D-03  0.148058D-02 -0.120370D-02 -0.484444D-03 -0.730503D-03
     32  0.736254D-03  0.653013D-03  0.824535D-03  0.113540D-02  0.654727D-03
     33 -0.348924D-03 -0.543502D-03  0.482012D-03 -0.152747D-03 -0.770081D-04
     34 -0.111955D-03  0.228022D-03 -0.349536D-03 -0.221692D-03 -0.106604D-03
     35 -0.798075D-04 -0.160308D-03 -0.570368D-04 -0.345850D-04  0.554354D-04
                6             7             8             9            10 
      6  0.000000D+00
      7 -0.286909D-02  0.000000D+00
      8 -0.279889D-02  0.391618D-02  0.000000D+00
      9  0.403077D-04  0.154519D-02 -0.704398D-02  0.000000D+00
     10  0.962593D-03  0.373389D-03  0.154381D-02  0.391468D-02  0.000000D+00
     11  0.132257D-01  0.151511D-01 -0.926902D-02 -0.926179D-02  0.151501D-01
     12 -0.680627D-01 -0.243072D-02  0.549066D-02  0.406289D-02 -0.597441D-02
     13  0.119592D+01 -0.570294D-02  0.349237D-02  0.537711D-02 -0.239804D-02
     14 -0.100140D-01  0.532428D-02 -0.766156D-02 -0.129724D-01  0.594835D-02
     15  0.119480D+00  0.611936D-02 -0.129668D-01 -0.771102D-02  0.528639D-02
     16  0.163929D+00 -0.163169D-03  0.189315D-02  0.182719D-02  0.184472D-03
     17  0.248118D-02  0.126262D-02 -0.169532D-02 -0.169475D-02  0.125701D-02
     18  0.210442D-02  0.156420D-02 -0.157932D-03 -0.157426D-03  0.156960D-02
     19  0.880333D-02  0.110229D-02  0.537361D-04 -0.395866D-03  0.333296D-03
     20  0.493732D-02  0.931129D-04 -0.255716D-04 -0.378404D-04  0.159045D-03
     21 -0.423032D-02 -0.540147D-03 -0.171297D-03  0.396112D-03  0.128005D-03
     22 -0.164938D-03  0.302363D-04 -0.372940D-04  0.000000D+00  0.266952D-04
     23 -0.139615D-02  0.116599D-04 -0.307689D-04  0.614543D-05  0.291288D-04
     24 -0.352694D-02  0.935182D-04 -0.262589D-04 -0.493441D-05  0.232194D-04
     25 -0.383977D-02 -0.621309D-03  0.231807D-05 -0.748369D-03 -0.867559D-03
     26 -0.361299D-02 -0.553857D-03 -0.183081D-02  0.298563D-03  0.347091D-04
     27  0.774775D-03  0.140717D-03  0.636034D-03 -0.213418D-03 -0.195127D-03
     28  0.170998D-03  0.779493D-04  0.385212D-03  0.726626D-03  0.132205D-03
     29  0.625426D-03 -0.821728D-04 -0.387743D-05  0.847872D-04 -0.511531D-04
     30 -0.748876D-04  0.841448D-04  0.104055D-02  0.543877D-03  0.118412D-03
     31  0.637441D-03 -0.333378D-04  0.322749D-04  0.360023D-04 -0.647201D-05
     32 -0.739624D-03  0.105144D-03  0.582396D-03  0.836349D-03  0.271051D-03
     33  0.942281D-04 -0.136282D-04  0.294585D-04  0.339063D-04 -0.281656D-04
     34 -0.614922D-04 -0.172692D-04  0.275786D-04  0.792230D-05 -0.263095D-04
     35 -0.500935D-04 -0.347200D-04 -0.176124D-05  0.220080D-04 -0.177080D-04
               11            12            13            14            15 
     11  0.000000D+00
     12 -0.341093D-02  0.000000D+00
     13 -0.310544D-02  0.321921D-01  0.000000D+00
     14 -0.138544D-01  0.655150D+00  0.996012D-01  0.000000D+00
     15 -0.138715D-01  0.119869D+00  0.621591D+00  0.154207D+01  0.000000D+00
     16 -0.538747D-02  0.731903D+00  0.745908D+00 -0.110677D+00 -0.921554D-01
     17  0.358592D-02 -0.128136D-02 -0.106471D-02 -0.452999D-02 -0.452054D-02
     18  0.369006D-02 -0.468759D-02 -0.470777D-02 -0.642376D-02 -0.642498D-02
     19  0.154407D-02 -0.289422D-01 -0.149734D-01  0.201772D-01  0.223487D-01
     20 -0.217694D-03 -0.101835D-01 -0.347220D-02  0.671854D-03 -0.222677D-02
     21 -0.787969D-03  0.166798D-02 -0.338457D-01 -0.715672D-02 -0.162508D-02
     22 -0.628384D-03  0.402400D-02  0.116272D-02 -0.228156D-02 -0.184672D-02
     23 -0.218508D-03 -0.125464D-03 -0.102848D-03 -0.103469D-02 -0.208204D-03
     24 -0.165944D-03 -0.143063D-02  0.149353D-02 -0.374879D-02 -0.612432D-03
     25 -0.810798D-03  0.304438D-02  0.990071D-02 -0.330089D-02 -0.908569D-03
     26 -0.104182D-03  0.584444D-02  0.103780D-01  0.254538D-02  0.388143D-02
     27 -0.146598D-04  0.283172D-02  0.694509D-02  0.265367D-02  0.251407D-02
     28  0.927634D-04 -0.305423D-02 -0.432936D-02 -0.665318D-03  0.859518D-03
     29  0.123272D-03 -0.558357D-03  0.239899D-02 -0.115013D-02  0.551912D-02
     30  0.673325D-04 -0.243554D-02 -0.664554D-02  0.239316D-03 -0.766496D-03
     31 -0.180183D-05  0.580358D-04 -0.302361D-03  0.265107D-02 -0.633705D-03
     32  0.227475D-03  0.473452D-02  0.272130D-02  0.194827D-02  0.262601D-02
     33  0.232108D-04  0.168074D-03 -0.229274D-02 -0.264939D-03  0.110589D-02
     34 -0.191818D-04 -0.950194D-03  0.190511D-03  0.668986D-03 -0.706230D-04
     35 -0.272538D-04 -0.422088D-04 -0.245527D-03  0.142504D-03  0.314781D-03
               16            17            18            19            20 
     16  0.000000D+00
     17 -0.211043D-02  0.000000D+00
     18 -0.390982D-02  0.765663D-02  0.000000D+00
     19  0.640096D+00  0.735962D-03  0.102989D-02  0.000000D+00
     20  0.704009D-02  0.626677D-04  0.190618D-05 -0.149437D-01  0.000000D+00
     21 -0.255309D-01 -0.137540D-03 -0.430206D-03  0.462237D+00  0.307477D-02
     22 -0.964642D-02  0.134202D-05 -0.666133D-04  0.431566D-02  0.262578D-02
     23  0.562443D-02  0.169619D-04 -0.203061D-04  0.789602D-02  0.261121D-02
     24 -0.532316D-02  0.375449D-04 -0.216988D-04  0.934519D-02  0.154754D-02
     25 -0.518288D-01 -0.373864D-03 -0.304072D-03  0.419437D+00  0.534677D-02
     26 -0.104873D-02 -0.155310D-03 -0.145341D-03  0.100245D-01  0.232708D-02
     27 -0.242562D-01  0.748437D-04  0.111835D-04 -0.600979D-02 -0.491767D-02
     28 -0.450111D-03  0.101483D-03  0.951351D-04  0.217048D-01 -0.156833D-02
     29 -0.430157D-02  0.327062D-05  0.532199D-04 -0.496963D-02 -0.343180D-03
     30 -0.506027D-03  0.124796D-03  0.699418D-04  0.104156D-01  0.276102D-02
     31 -0.472701D-02  0.760880D-05  0.170241D-04 -0.607847D-02  0.189856D-02
     32 -0.212032D-02  0.206737D-03  0.101192D-03  0.148145D-02 -0.393991D-02
     33  0.150585D-03 -0.438331D-05 -0.501962D-05  0.173596D-02 -0.321204D-03
     34 -0.740417D-03 -0.474333D-05 -0.855813D-05  0.670421D-03  0.221827D-03
     35  0.190943D-02  0.000000D+00  0.338196D-05  0.240097D-02  0.334790D-03
               21            22            23            24            25 
     21  0.000000D+00
     22 -0.469876D-02  0.000000D+00
     23 -0.435696D-02  0.779179D-02  0.000000D+00
     24  0.167271D-02  0.804050D-02  0.833915D-02  0.000000D+00
     25 -0.271503D-01  0.523954D-02 -0.104602D-01 -0.202217D-02  0.000000D+00
     26 -0.713195D-02 -0.209717D-02  0.357105D-02 -0.373098D-02  0.618828D+00
     27 -0.179296D-01 -0.148748D-02  0.585650D-02 -0.367244D-03  0.627350D+00
     28 -0.809787D-03  0.500536D-03 -0.158172D-02  0.912416D-03 -0.387464D+00
     29 -0.244285D-02  0.137867D-03  0.468399D-03 -0.316251D-03  0.317380D-02
     30 -0.123253D-02  0.317979D-03 -0.215092D-02 -0.148506D-02 -0.396445D+00
     31 -0.154673D-02  0.200308D-04  0.271008D-03 -0.898924D-04  0.275421D-02
     32 -0.311962D-02 -0.157742D-02  0.406030D-02 -0.234701D-02  0.819323D+00
     33 -0.379854D-03 -0.691029D-04 -0.132831D-03 -0.119505D-03 -0.909369D-02
     34 -0.850888D-03 -0.363514D-04 -0.211353D-03 -0.178064D-03 -0.909446D-02
     35 -0.138905D-03  0.178581D-03  0.199142D-03 -0.220944D-03  0.527619D-02
               26            27            28            29            30 
     26  0.000000D+00
     27 -0.385524D+00  0.000000D+00
     28  0.630514D+00  0.776805D+00  0.000000D+00
     29  0.329648D-01 -0.839448D-02  0.509584D-02  0.000000D+00
     30  0.801769D+00  0.612462D+00 -0.387751D+00  0.558367D-02  0.000000D+00
     31 -0.864007D-02  0.268760D-01  0.638290D-02  0.444781D-03  0.508063D-02
     32 -0.387656D+00 -0.383637D+00  0.606355D+00 -0.843804D-02  0.627244D+00
     33  0.472427D-02  0.499005D-02  0.272559D-01  0.185978D-02 -0.904674D-02
     34  0.491674D-02  0.481667D-02 -0.874881D-02  0.437025D-02  0.277654D-01
     35 -0.878984D-02 -0.841052D-02  0.508608D-02  0.520639D-03  0.525565D-02
               31            32            33            34            35 
     31  0.000000D+00
     32 -0.890103D-02  0.000000D+00
     33  0.416267D-02  0.546833D-02  0.000000D+00
     34  0.201265D-02  0.539939D-02  0.416344D-03  0.000000D+00
     35  0.516844D-03  0.282535D-01  0.188965D-02  0.174183D-02  0.000000D+00
 Spin-dipolar (SD) contribution to J (Hz):
                1             2             3             4             5 
      1  0.000000D+00
      2  0.704639D+00  0.000000D+00
      3 -0.558009D-01  0.347007D+01  0.000000D+00
      4  0.109660D-01 -0.558873D-01  0.704879D+00  0.000000D+00
      5  0.157937D-02  0.913077D-02 -0.316348D-01  0.364381D-02  0.000000D+00
      6  0.308127D-02 -0.322851D-01  0.870586D-02  0.180164D-02 -0.497467D-01
      7  0.227369D-01  0.190762D-01 -0.955897D-02 -0.190128D-02  0.116204D-02
      8  0.542071D-01  0.314305D+00  0.660143D-01 -0.172456D-01  0.428380D-04
      9 -0.172263D-01  0.658667D-01  0.314542D+00  0.543584D-01 -0.222491D-01
     10 -0.191096D-02 -0.955287D-02  0.190792D-01  0.228653D-01 -0.330419D-02
     11  0.862352D+00 -0.476537D-01 -0.476905D-01  0.862775D+00  0.254693D-01
     12 -0.163103D-03  0.157457D-01  0.242622D-01  0.885280D-02 -0.136520D+01
     13  0.896478D-02  0.246823D-01  0.149540D-01  0.392524D-03  0.898661D-01
     14 -0.234102D-01 -0.224585D-01 -0.105191D+00  0.435989D+00  0.647431D-01
     15  0.435502D+00 -0.105470D+00 -0.220309D-01 -0.236607D-01 -0.698891D-02
     16 -0.173626D-01  0.973359D-03  0.975900D-03 -0.170405D-01  0.957471D-01
     17  0.749763D-01 -0.116444D-01 -0.118161D-01  0.752855D-01  0.195006D-01
     18  0.615536D-01 -0.424183D-02 -0.420486D-02  0.613668D-01  0.161169D-01
     19  0.106503D-01  0.252451D-02  0.113003D-02  0.801852D-02 -0.138503D-01
     20  0.616271D-02  0.151575D-01 -0.111580D-01  0.839615D-02 -0.507810D-01
     21  0.138668D-02 -0.138840D-02  0.211011D-02  0.202719D-02 -0.155327D-01
     22  0.117361D-01 -0.258587D-02  0.426226D-02  0.104682D-01  0.686234D-02
     23  0.451901D-02 -0.160694D-02  0.279138D-02  0.434562D-02 -0.243665D-02
     24  0.670974D-02 -0.983973D-02  0.118819D-01  0.445958D-02  0.197496D-01
     25 -0.512303D-02 -0.235258D-02 -0.155083D-02 -0.628161D-02 -0.146574D-01
     26 -0.960842D-03 -0.530468D-02  0.422450D-02  0.131090D-02  0.423224D-02
     27  0.138279D-02  0.355388D-02 -0.106181D-02  0.597618D-03  0.615649D-03
     28 -0.859146D-03 -0.796875D-03  0.236647D-02 -0.813095D-03 -0.715977D-03
     29 -0.932916D-02 -0.196073D-01  0.237592D-01 -0.408097D-02  0.905815D-02
     30 -0.638267D-03  0.141909D-02  0.472285D-03 -0.894423D-03 -0.895460D-04
     31 -0.205387D-02  0.116179D-01 -0.944530D-02 -0.380138D-02 -0.573218D-02
     32  0.145302D-02  0.128874D-02  0.162724D-02  0.224075D-02  0.129212D-02
     33 -0.273797D-02 -0.426481D-02  0.378230D-02 -0.119859D-02 -0.604275D-03
     34 -0.878501D-03  0.178927D-02 -0.274278D-02 -0.173959D-02 -0.836513D-03
     35 -0.626242D-03 -0.125792D-02 -0.447562D-03 -0.271385D-03  0.434996D-03
                6             7             8             9            10 
      6  0.000000D+00
      7 -0.345596D-02  0.000000D+00
      8 -0.219626D-01  0.187561D-01  0.000000D+00
      9  0.316290D-03  0.740049D-02 -0.219772D+00  0.000000D+00
     10  0.115949D-02  0.274516D-03  0.739392D-02  0.187489D-01  0.000000D+00
     11  0.261013D-01  0.182502D-01 -0.727331D-01 -0.726763D-01  0.182490D-01
     12  0.724310D-01  0.157882D-02 -0.232325D-01 -0.171912D-01  0.388054D-02
     13 -0.127267D+01  0.370421D-02 -0.147772D-01 -0.227520D-01  0.155759D-02
     14 -0.568007D-02  0.184327D-02 -0.172790D-01 -0.292564D-01  0.205932D-02
     15  0.677707D-01  0.211852D-02 -0.292439D-01 -0.173905D-01  0.183015D-02
     16  0.929826D-01 -0.564892D-04  0.426959D-02  0.412083D-02  0.638643D-04
     17  0.194696D-01  0.604717D-02 -0.528940D-01 -0.528763D-01  0.602032D-02
     18  0.165132D-01  0.749155D-02 -0.492747D-02 -0.491167D-02  0.751742D-02
     19  0.173736D-01  0.132776D-02  0.421662D-03 -0.310632D-02  0.401471D-03
     20  0.387426D-01  0.445954D-03 -0.797833D-03 -0.118062D-02  0.761729D-03
     21 -0.834864D-02 -0.650633D-03 -0.134415D-02  0.310825D-02  0.154188D-03
     22 -0.129426D-02  0.144813D-03 -0.116357D-02 -0.251892D-04  0.127853D-03
     23 -0.109555D-01  0.558436D-04 -0.959987D-03  0.191737D-03  0.139509D-03
     24 -0.276755D-01  0.447895D-03 -0.819278D-03 -0.153954D-03  0.111207D-03
     25 -0.757787D-02 -0.748396D-03  0.181897D-04 -0.587238D-02 -0.104502D-02
     26 -0.713032D-02 -0.667147D-03 -0.143662D-01  0.234279D-02  0.418088D-04
     27  0.152904D-02  0.169501D-03  0.499090D-02 -0.167467D-02 -0.235040D-03
     28  0.337468D-03  0.938936D-04  0.302272D-02  0.570176D-02  0.159247D-03
     29  0.490766D-02 -0.393557D-03 -0.120976D-03  0.264536D-02 -0.244992D-03
     30 -0.147793D-03  0.101356D-03  0.816506D-02  0.426775D-02  0.142633D-03
     31  0.500194D-02 -0.159668D-03  0.100698D-02  0.112327D-02 -0.309969D-04
     32 -0.145967D-02  0.126651D-03  0.457000D-02  0.656275D-02  0.326494D-03
     33  0.739398D-03 -0.652705D-04  0.919105D-03  0.105787D-02 -0.134896D-03
     34 -0.482523D-03 -0.827087D-04  0.860450D-03  0.247175D-03 -0.126006D-03
     35 -0.393079D-03 -0.166287D-03 -0.549506D-04  0.686648D-03 -0.848106D-04
               11            12            13            14            15 
     11  0.000000D+00
     12  0.362984D-02  0.000000D+00
     13  0.330475D-02  0.184730D-01  0.000000D+00
     14 -0.785840D-02 -0.200382D+00 -0.304637D-01  0.000000D+00
     15 -0.786809D-02 -0.366629D-01 -0.190118D+00  0.251393D+00  0.000000D+00
     16 -0.305584D-02 -0.223858D+00 -0.228141D+00 -0.180429D-01 -0.150234D-01
     17  0.281384D-01  0.542177D-02  0.450509D-02 -0.102164D-01 -0.101951D-01
     18  0.289555D-01  0.198345D-01  0.199199D-01 -0.144874D-01 -0.144902D-01
     19  0.304725D-02  0.307997D-01  0.159344D-01  0.114448D-01  0.126764D-01
     20 -0.170822D-02  0.430890D-01  0.146918D-01  0.151522D-02 -0.502199D-02
     21 -0.155508D-02 -0.177503D-02  0.360180D-01 -0.405938D-02 -0.921768D-03
     22 -0.493087D-02 -0.170267D-01 -0.491977D-02 -0.514556D-02 -0.416487D-02
     23 -0.171461D-02  0.530873D-03  0.435178D-03 -0.233351D-02 -0.469558D-03
     24 -0.130215D-02  0.605340D-02 -0.631952D-02 -0.845458D-02 -0.138121D-02
     25 -0.160013D-02 -0.323977D-02 -0.105361D-01 -0.187231D-02 -0.515352D-03
     26 -0.205605D-03 -0.621954D-02 -0.110440D-01  0.144377D-02  0.220160D-02
     27 -0.289315D-04 -0.301346D-02 -0.739083D-02  0.150520D-02  0.142601D-02
     28  0.183071D-03  0.325025D-02  0.460722D-02 -0.377377D-03  0.487529D-03
     29  0.967303D-03  0.236256D-02 -0.101508D-01 -0.259386D-02  0.124472D-01
     30  0.132882D-03  0.259185D-02  0.707205D-02  0.135743D-03 -0.434766D-03
     31 -0.141388D-04 -0.245565D-03  0.127937D-02  0.597892D-02 -0.142919D-02
     32  0.448928D-03 -0.503838D-02 -0.289596D-02  0.110508D-02  0.148950D-02
     33  0.182133D-03 -0.711168D-03  0.970121D-02 -0.597513D-03  0.249410D-02
     34 -0.150518D-03  0.402053D-02 -0.806102D-03  0.150875D-02 -0.159275D-03
     35 -0.213858D-03  0.178597D-03  0.103889D-02  0.321386D-03  0.709920D-03
               16            17            18            19            20 
     16  0.000000D+00
     17 -0.475961D-02  0.000000D+00
     18 -0.881776D-02  0.238887D+00  0.000000D+00
     19  0.363071D+00  0.577502D-02  0.808141D-02  0.000000D+00
     20  0.158774D-01  0.195523D-02  0.594729D-04 -0.117262D+00  0.000000D+00
     21 -0.144814D-01 -0.107926D-02 -0.337578D-02  0.912236D+00  0.241274D-01
     22 -0.217554D-01  0.418709D-04 -0.207833D-02  0.338645D-01  0.819243D-01
     23  0.126847D-01  0.529211D-03 -0.633550D-03  0.619593D-01  0.814696D-01
     24 -0.120052D-01  0.117140D-02 -0.677002D-03  0.733308D-01  0.482833D-01
     25 -0.293979D-01 -0.293367D-02 -0.238603D-02  0.827770D+00  0.419556D-01
     26 -0.594853D-03 -0.121870D-02 -0.114048D-02  0.197835D-01  0.182604D-01
     27 -0.137584D-01  0.587292D-03  0.877559D-04 -0.118605D-01 -0.385885D-01
     28 -0.255309D-03  0.796326D-03  0.746516D-03  0.428350D-01 -0.123066D-01
     29 -0.970127D-02  0.102043D-03  0.166046D-02 -0.389962D-01 -0.107072D-01
     30 -0.287025D-03  0.979262D-03  0.548827D-03  0.205554D-01  0.216654D-01
     31 -0.106607D-01  0.237394D-03  0.531151D-03 -0.476972D-01  0.592351D-01
     32 -0.120267D-02  0.162225D-02  0.794042D-03  0.292368D-02 -0.309161D-01
     33  0.339613D-03 -0.136759D-03 -0.156612D-03  0.136219D-01 -0.100216D-01
     34 -0.166985D-02 -0.147992D-03 -0.267013D-03  0.526073D-02  0.692098D-02
     35  0.430630D-02  0.111274D-04  0.105517D-03  0.188402D-01  0.104454D-01
               21            22            23            24            25 
     21  0.000000D+00
     22 -0.368707D-01  0.000000D+00
     23 -0.341887D-01  0.243104D+00  0.000000D+00
     24  0.131256D-01  0.250863D+00  0.260181D+00  0.000000D+00
     25 -0.535818D-01  0.411142D-01 -0.820804D-01 -0.158678D-01  0.000000D+00
     26 -0.140751D-01 -0.164563D-01  0.280217D-01 -0.292766D-01  0.122127D+01
     27 -0.353845D-01 -0.116721D-01  0.459554D-01 -0.288173D-02  0.123809D+01
     28 -0.159814D-02  0.392766D-02 -0.124116D-01  0.715964D-02 -0.764671D+00
     29 -0.191688D-01  0.430144D-02  0.146140D-01 -0.986702D-02  0.249045D-01
     30 -0.243243D-02  0.249515D-02 -0.168781D-01 -0.116531D-01 -0.782393D+00
     31 -0.121370D-01  0.624959D-03  0.845545D-02 -0.280464D-02  0.216120D-01
     32 -0.615664D-02 -0.123778D-01  0.318608D-01 -0.184167D-01  0.161695D+01
     33 -0.298067D-02 -0.215601D-02 -0.414431D-02 -0.372856D-02 -0.713573D-01
     34 -0.667684D-02 -0.113416D-02 -0.659420D-02 -0.555558D-02 -0.713633D-01
     35 -0.108997D-02  0.557173D-02  0.621323D-02 -0.689345D-02  0.414018D-01
               26            27            28            29            30 
     26  0.000000D+00
     27 -0.760842D+00  0.000000D+00
     28  0.124433D+01  0.153304D+01  0.000000D+00
     29  0.258671D+00 -0.658707D-01  0.399865D-01  0.000000D+00
     30  0.158231D+01  0.120871D+01 -0.765237D+00  0.438145D-01  0.000000D+00
     31 -0.677978D-01  0.210894D+00  0.500860D-01  0.138772D-01  0.398672D-01
[...]
 itle Card Required\\0,1\C,0,-2.922317,-0.513298,-1.228945\C,0,-2.14247
 7,-1.779457,-0.894673\C,0,-2.220338,-1.946946,0.437958\C,0,-3.0516,-0.
 791631,0.982354\C,0,-0.946915,0.631271,1.312863\C,0,-0.812037,0.913476
 ,-0.963394\H,0,-3.177189,-0.308946,-2.265295\H,0,-1.550088,-2.346133,-
 1.60317\H,0,-1.705101,-2.679399,1.048025\H,0,-3.426339,-0.844742,2.000
 938\C,0,-4.051344,-0.568596,-0.174988\O,0,-0.616492,0.508571,2.484818\
 O,0,-0.363569,1.059623,-2.0926\N,0,-2.223542,0.459989,0.787157\N,0,-2.
 140262,0.639595,-0.638523\N,0,-0.134056,1.036388,0.25062\H,0,-4.712354
 ,-1.422124,-0.321018\H,0,-4.621164,0.359488,-0.091256\C,0,1.276811,1.4
 47306,0.456968\H,0,1.318018,1.648309,1.530221\C,0,1.590523,2.750992,-0
 .288546\H,0,0.878723,3.531382,-0.002453\H,0,2.595124,3.082359,-0.01141
 6\H,0,1.55276,2.623878,-1.371455\C,0,2.254921,0.310153,0.172412\C,0,2.
 530072,-0.126709,-1.133364\C,0,2.914039,-0.30969,1.243557\C,0,3.439649
 ,-1.163538,-1.356692\H,0,2.022614,0.335351,-1.973431\C,0,3.827518,-1.3
 45367,1.021367\H,0,2.711693,0.018592,2.259711\C,0,4.091978,-1.776216,-
 0.281135\H,0,3.639642,-1.492423,-2.372621\H,0,4.328524,-1.812511,1.864
 377\H,0,4.799744,-2.580935,-0.45813\\Version=EM64L-G09RevA.02\State=1-
 A\HF=-895.351252\RMSD=8.988e-09\Dipole=-0.7257945,-0.9110376,-0.195164
 3\Quadrupole=8.0057097,0.6728216,-8.6785313,2.8270487,1.6601062,1.5440
 899\PG=C01 [X(C15H15N3O2)]\\@
 DoSRE=F DoSRN=T DoDH=F DoFC=F DoNQ=T DoQCD=F DoSCD=F
 Inertia tensor (amu-bohr**2): 
                 1             2             3 
      1   0.282076D+04  0.197618D+02  0.634231D+01
      2   0.197618D+02  0.729189D+04  0.352053D+01
      3   0.634231D+01  0.352053D+01  0.742602D+04
 Principal inertia moments (amu-bohr**2):
 Iaa = 0.282066D+04 Ibb= 0.729189D+04 Icc= 0.742613D+04
 Rotation matrix to Principal Axis frame: 
                 1             2             3 
      1   0.999989D+00  0.438076D-02  0.149012D-02
      2  -0.441863D-02  0.999641D+00  0.264371D-01
      3  -0.137377D-02 -0.264434D-01  0.999649D+00
                Principal axis orientation:                
 ---------------------------------------------------------------------
 Center     Atomic                     Coordinates (Angstroms)
 Number     Number                        X           Y           Z
 ---------------------------------------------------------------------
      1          6                   -2.876736   -0.495711   -1.251926
      2          6                   -2.091769   -1.766839   -0.950083
      3          6                   -2.170720   -1.969848    0.377537
      4          6                   -3.007826   -0.832985    0.951046
      5          6                   -0.909905    0.589886    1.322193
      6          6                   -0.773148    0.932772   -0.945604
      7          1                   -3.131085   -0.265145   -2.282890
      8          1                   -1.495909   -2.311981   -1.672430
      9          1                   -1.653090   -2.715913    0.968794
     10          1                   -3.383726   -0.914654    1.967311
     11          6                   -4.006955   -0.583806   -0.201483
     12          8                   -0.580553    0.437687    2.490986
     13          8                   -0.323779    1.110692   -2.069882
     14          7                   -2.185039    0.426974    0.790241
     15          7                   -2.100595    0.644581   -0.630067
     16          7                   -0.097385    1.026508    0.272244
     17          1                   -4.663986   -1.436061   -0.371012
     18          1                   -4.580985    0.339234   -0.094094
     19          6                    1.311367    1.438002    0.491485
     20          1                    1.350211    1.610733    1.569737
     21          6                    1.620340    2.762308   -0.218834
     22          1                    0.904706    3.531734    0.086729
     23          1                    2.623085    3.090629    0.068456
     24          1                    1.584626    2.663710   -1.304780
     25          6                    2.294883    0.313067    0.178424
     26          6                    2.573755   -0.087903   -1.138034
     27          6                    2.955261   -0.331990    1.233788
     28          6                    3.488210   -1.114469   -1.387339
     29          1                    2.065415    0.393982   -1.966347
     30          6                    3.873612   -1.357418    0.985657
     31          1                    2.750071   -0.031583    2.257963
     32          6                    4.141762   -1.752511   -0.327385
     33          1                    3.691050   -1.415495   -2.411309
     34          1                    4.375518   -1.844491    1.816768
     35          1                    4.853319   -2.549160   -0.524537
 ---------------------------------------------------------------------
 Rotational constants (MHZ):
    639.8288551    247.4999272    243.0259484
 nuclear spin - molecular rotation tensor [C] (MHz):
  1  C12   
   aa=     0.0000   ba=     0.0000   ca=     0.0000
   ab=     0.0000   bb=     0.0000   cb=     0.0000
   ac=     0.0000   bc=     0.0000   cc=     0.0000
  2  C12   
   aa=     0.0000   ba=     0.0000   ca=     0.0000
   ab=     0.0000   bb=     0.0000   cb=     0.0000
   ac=     0.0000   bc=     0.0000   cc=     0.0000
  3  C12   
   aa=     0.0000   ba=     0.0000   ca=     0.0000
   ab=     0.0000   bb=     0.0000   cb=     0.0000
   ac=     0.0000   bc=     0.0000   cc=     0.0000
  4  C12   
   aa=     0.0000   ba=     0.0000   ca=     0.0000
   ab=     0.0000   bb=     0.0000   cb=     0.0000
   ac=     0.0000   bc=     0.0000   cc=     0.0000
  5  C12   
   aa=     0.0000   ba=     0.0000   ca=     0.0000
   ab=     0.0000   bb=     0.0000   cb=     0.0000
   ac=     0.0000   bc=     0.0000   cc=     0.0000
  6  C12   
   aa=     0.0000   ba=     0.0000   ca=     0.0000
   ab=     0.0000   bb=     0.0000   cb=     0.0000
   ac=     0.0000   bc=     0.0000   cc=     0.0000
  7  H2    
   aa=     0.0000   ba=     0.0000   ca=     0.0000
   ab=     0.0000   bb=     0.0000   cb=     0.0000
   ac=     0.0000   bc=     0.0000   cc=     0.0000
  8  H1    
   aa=     0.0000   ba=     0.0000   ca=     0.0000
   ab=     0.0000   bb=     0.0000   cb=     0.0000
   ac=     0.0000   bc=     0.0000   cc=     0.0000
  9  H1    
   aa=     0.0000   ba=     0.0000   ca=     0.0000
   ab=     0.0000   bb=     0.0000   cb=     0.0000
   ac=     0.0000   bc=     0.0000   cc=     0.0000
 10  H2    
   aa=     0.0000   ba=     0.0000   ca=     0.0000
   ab=     0.0000   bb=     0.0000   cb=     0.0000
   ac=     0.0000   bc=     0.0000   cc=     0.0000
 11  C12   
   aa=     0.0000   ba=     0.0000   ca=     0.0000
   ab=     0.0000   bb=     0.0000   cb=     0.0000
   ac=     0.0000   bc=     0.0000   cc=     0.0000
 12  O16   
   aa=     0.0000   ba=     0.0000   ca=     0.0000
   ab=     0.0000   bb=     0.0000   cb=     0.0000
   ac=     0.0000   bc=     0.0000   cc=     0.0000
 13  O16   
   aa=     0.0000   ba=     0.0000   ca=     0.0000
   ab=     0.0000   bb=     0.0000   cb=     0.0000
   ac=     0.0000   bc=     0.0000   cc=     0.0000
 14  N14   
   aa=     0.0001   ba=     0.0000   ca=     0.0000
   ab=     0.0000   bb=     0.0000   cb=     0.0000
   ac=     0.0000   bc=     0.0000   cc=     0.0000
 15  N14   
   aa=     0.0001   ba=     0.0000   ca=     0.0000
   ab=     0.0000   bb=     0.0000   cb=     0.0000
   ac=     0.0000   bc=     0.0000   cc=     0.0000
 16  N14   
   aa=     0.0001   ba=     0.0000   ca=     0.0000
   ab=     0.0000   bb=     0.0000   cb=     0.0000
   ac=     0.0000   bc=     0.0000   cc=     0.0000
 17  H1    
   aa=     0.0000   ba=     0.0000   ca=     0.0000
   ab=     0.0000   bb=     0.0000   cb=     0.0000
   ac=     0.0000   bc=     0.0000   cc=     0.0000
 18  H1    
   aa=     0.0000   ba=     0.0000   ca=     0.0000
   ab=     0.0000   bb=     0.0000   cb=     0.0000
   ac=     0.0000   bc=     0.0000   cc=     0.0000
 19  C12   
   aa=     0.0000   ba=     0.0000   ca=     0.0000
   ab=     0.0000   bb=     0.0000   cb=     0.0000
   ac=     0.0000   bc=     0.0000   cc=     0.0000
 20  H1    
   aa=    -0.0001   ba=     0.0000   ca=     0.0000
   ab=     0.0000   bb=     0.0000   cb=     0.0000
   ac=     0.0000   bc=     0.0000   cc=     0.0000
 21  C12   
   aa=     0.0000   ba=     0.0000   ca=     0.0000
   ab=     0.0000   bb=     0.0000   cb=     0.0000
   ac=     0.0000   bc=     0.0000   cc=     0.0000
 22  H1    
   aa=     0.0000   ba=     0.0000   ca=     0.0000
   ab=     0.0000   bb=     0.0000   cb=     0.0000
   ac=     0.0000   bc=     0.0000   cc=     0.0000
 23  H1    
   aa=     0.0000   ba=     0.0000   ca=     0.0000
   ab=     0.0000   bb=     0.0000   cb=     0.0000
   ac=     0.0000   bc=     0.0000   cc=     0.0000
 24  H1    
   aa=    -0.0001   ba=     0.0000   ca=     0.0000
   ab=     0.0000   bb=     0.0000   cb=     0.0000
   ac=     0.0000   bc=     0.0000   cc=     0.0000
 25  C12   
   aa=     0.0000   ba=     0.0000   ca=     0.0000
   ab=     0.0000   bb=     0.0000   cb=     0.0000
   ac=     0.0000   bc=     0.0000   cc=     0.0000
 26  C12   
   aa=     0.0000   ba=     0.0000   ca=     0.0000
   ab=     0.0000   bb=     0.0000   cb=     0.0000
   ac=     0.0000   bc=     0.0000   cc=     0.0000
 27  C12   
   aa=     0.0000   ba=     0.0000   ca=     0.0000
   ab=     0.0000   bb=     0.0000   cb=     0.0000
   ac=     0.0000   bc=     0.0000   cc=     0.0000
 28  C12   
   aa=     0.0000   ba=     0.0000   ca=     0.0000
   ab=     0.0000   bb=     0.0000   cb=     0.0000
   ac=     0.0000   bc=     0.0000   cc=     0.0000
 29  H1    
   aa=     0.0000   ba=     0.0000   ca=     0.0000
   ab=     0.0000   bb=     0.0000   cb=     0.0000
   ac=     0.0000   bc=     0.0000   cc=     0.0000
 30  C12   
   aa=     0.0000   ba=     0.0000   ca=     0.0000
   ab=     0.0000   bb=     0.0000   cb=     0.0000
   ac=     0.0000   bc=     0.0000   cc=     0.0000
 31  H1    
   aa=    -0.0001   ba=     0.0000   ca=     0.0000
   ab=     0.0000   bb=     0.0000   cb=     0.0000
   ac=     0.0000   bc=     0.0000   cc=     0.0000
 32  C12   
   aa=     0.0000   ba=     0.0000   ca=     0.0000
   ab=     0.0000   bb=     0.0000   cb=     0.0000
   ac=     0.0000   bc=     0.0000   cc=     0.0000
 33  H1    
   aa=    -0.0001   ba=     0.0000   ca=     0.0000
   ab=     0.0000   bb=     0.0000   cb=     0.0000
   ac=     0.0000   bc=     0.0000   cc=     0.0000
 34  H1    
   aa=     0.0000   ba=     0.0000   ca=     0.0000
   ab=     0.0000   bb=     0.0000   cb=     0.0000
   ac=     0.0000   bc=     0.0000   cc=     0.0000
 35  H1    
   aa=     0.0000   ba=     0.0000   ca=     0.0000
   ab=     0.0000   bb=     0.0000   cb=     0.0000
   ac=     0.0000   bc=     0.0000   cc=     0.0000
 Nuclear quadrupole coupling constants [Chi] (MHz):
  1  C(12) 
   aa=     0.0000   ba=     0.0000   ca=     0.0000
   ab=     0.0000   bb=     0.0000   cb=     0.0000
   ac=     0.0000   bc=     0.0000   cc=     0.0000
  2  C(12) 
   aa=     0.0000   ba=     0.0000   ca=     0.0000
   ab=     0.0000   bb=     0.0000   cb=     0.0000
   ac=     0.0000   bc=     0.0000   cc=     0.0000
  3  C(12) 
   aa=     0.0000   ba=     0.0000   ca=     0.0000
   ab=     0.0000   bb=     0.0000   cb=     0.0000
   ac=     0.0000   bc=     0.0000   cc=     0.0000
  4  C(12) 
   aa=     0.0000   ba=     0.0000   ca=     0.0000
   ab=     0.0000   bb=     0.0000   cb=     0.0000
   ac=     0.0000   bc=     0.0000   cc=     0.0000
  5  C(12) 
   aa=     0.0000   ba=     0.0000   ca=     0.0000
   ab=     0.0000   bb=     0.0000   cb=     0.0000
   ac=     0.0000   bc=     0.0000   cc=     0.0000
  6  C(12) 
   aa=     0.0000   ba=     0.0000   ca=     0.0000
   ab=     0.0000   bb=     0.0000   cb=     0.0000
   ac=     0.0000   bc=     0.0000   cc=     0.0000
  7  H(2)  
   aa=    -0.0818   ba=    -0.0118   ca=     0.0669
   ab=    -0.0118   bb=    -0.0811   cb=    -0.0558
   ac=     0.0669   bc=    -0.0558   cc=     0.1629
  8  H(1)  
   aa=     0.0000   ba=     0.0000   ca=     0.0000
   ab=     0.0000   bb=     0.0000   cb=     0.0000
   ac=     0.0000   bc=     0.0000   cc=     0.0000
  9  H(1)  
   aa=     0.0000   ba=     0.0000   ca=     0.0000
   ab=     0.0000   bb=     0.0000   cb=     0.0000
   ac=     0.0000   bc=     0.0000   cc=     0.0000
 10  H(2)  
   aa=    -0.0625   ba=     0.0109   ca=    -0.0952
   ab=     0.0109   bb=    -0.0915   cb=    -0.0209
   ac=    -0.0952   bc=    -0.0209   cc=     0.1540
 11  C(12) 
   aa=     0.0000   ba=     0.0000   ca=     0.0000
   ab=     0.0000   bb=     0.0000   cb=     0.0000
   ac=     0.0000   bc=     0.0000   cc=     0.0000
 12  O(16) 
   aa=     0.0000   ba=     0.0000   ca=     0.0000
   ab=     0.0000   bb=     0.0000   cb=     0.0000
   ac=     0.0000   bc=     0.0000   cc=     0.0000
 13  O(16) 
   aa=     0.0000   ba=     0.0000   ca=     0.0000
   ab=     0.0000   bb=     0.0000   cb=     0.0000
   ac=     0.0000   bc=     0.0000   cc=     0.0000
 14  N(14) 
   aa=    -1.0511   ba=     2.9449   ca=     1.3311
   ab=     2.9449   bb=    -1.9888   cb=    -2.2437
   ac=     1.3311   bc=    -2.2437   cc=     3.0399
 15  N(14) 
   aa=    -0.7823   ba=     3.1037   ca=    -0.9147
   ab=     3.1037   bb=    -2.9185   cb=     0.7720
   ac=    -0.9147   bc=     0.7720   cc=     3.7008
 16  N(14) 
   aa=     1.2424   ba=     1.4912   ca=     0.2556
   ab=     1.4912   bb=    -2.8999   cb=    -0.5962
   ac=     0.2556   bc=    -0.5962   cc=     1.6576
 17  H(1)  
   aa=     0.0000   ba=     0.0000   ca=     0.0000
   ab=     0.0000   bb=     0.0000   cb=     0.0000
   ac=     0.0000   bc=     0.0000   cc=     0.0000
 18  H(1)  
   aa=     0.0000   ba=     0.0000   ca=     0.0000
   ab=     0.0000   bb=     0.0000   cb=     0.0000
   ac=     0.0000   bc=     0.0000   cc=     0.0000
 19  C(12) 
   aa=     0.0000   ba=     0.0000   ca=     0.0000
   ab=     0.0000   bb=     0.0000   cb=     0.0000
   ac=     0.0000   bc=     0.0000   cc=     0.0000
 20  H(1)  
   aa=     0.0000   ba=     0.0000   ca=     0.0000
   ab=     0.0000   bb=     0.0000   cb=     0.0000
   ac=     0.0000   bc=     0.0000   cc=     0.0000
 21  C(12) 
   aa=     0.0000   ba=     0.0000   ca=     0.0000
   ab=     0.0000   bb=     0.0000   cb=     0.0000
   ac=     0.0000   bc=     0.0000   cc=     0.0000
 22  H(1)  
   aa=     0.0000   ba=     0.0000   ca=     0.0000
   ab=     0.0000   bb=     0.0000   cb=     0.0000
   ac=     0.0000   bc=     0.0000   cc=     0.0000
 23  H(1)  
   aa=     0.0000   ba=     0.0000   ca=     0.0000
   ab=     0.0000   bb=     0.0000   cb=     0.0000
   ac=     0.0000   bc=     0.0000   cc=     0.0000
 24  H(1)  
   aa=     0.0000   ba=     0.0000   ca=     0.0000
   ab=     0.0000   bb=     0.0000   cb=     0.0000
   ac=     0.0000   bc=     0.0000   cc=     0.0000
 25  C(12) 
   aa=     0.0000   ba=     0.0000   ca=     0.0000
   ab=     0.0000   bb=     0.0000   cb=     0.0000
   ac=     0.0000   bc=     0.0000   cc=     0.0000
 26  C(12) 
   aa=     0.0000   ba=     0.0000   ca=     0.0000
   ab=     0.0000   bb=     0.0000   cb=     0.0000
   ac=     0.0000   bc=     0.0000   cc=     0.0000
 27  C(12) 
   aa=     0.0000   ba=     0.0000   ca=     0.0000
   ab=     0.0000   bb=     0.0000   cb=     0.0000
   ac=     0.0000   bc=     0.0000   cc=     0.0000
 28  C(12) 
   aa=     0.0000   ba=     0.0000   ca=     0.0000
   ab=     0.0000   bb=     0.0000   cb=     0.0000
   ac=     0.0000   bc=     0.0000   cc=     0.0000
 29  H(1)  
   aa=     0.0000   ba=     0.0000   ca=     0.0000
   ab=     0.0000   bb=     0.0000   cb=     0.0000
   ac=     0.0000   bc=     0.0000   cc=     0.0000
 30  C(12) 
   aa=     0.0000   ba=     0.0000   ca=     0.0000
   ab=     0.0000   bb=     0.0000   cb=     0.0000
   ac=     0.0000   bc=     0.0000   cc=     0.0000
 31  H(1)  
   aa=     0.0000   ba=     0.0000   ca=     0.0000
   ab=     0.0000   bb=     0.0000   cb=     0.0000
   ac=     0.0000   bc=     0.0000   cc=     0.0000
 32  C(12) 
   aa=     0.0000   ba=     0.0000   ca=     0.0000
   ab=     0.0000   bb=     0.0000   cb=     0.0000
   ac=     0.0000   bc=     0.0000   cc=     0.0000
 33  H(1)  
   aa=     0.0000   ba=     0.0000   ca=     0.0000
   ab=     0.0000   bb=     0.0000   cb=     0.0000
   ac=     0.0000   bc=     0.0000   cc=     0.0000
 34  H(1)  
   aa=     0.0000   ba=     0.0000   ca=     0.0000
   ab=     0.0000   bb=     0.0000   cb=     0.0000
   ac=     0.0000   bc=     0.0000   cc=     0.0000
 35  H(1)  
   aa=     0.0000   ba=     0.0000   ca=     0.0000
   ab=     0.0000   bb=     0.0000   cb=     0.0000
   ac=     0.0000   bc=     0.0000   cc=     0.0000
 Dipole moment (Debye):
     -1.8338523     -2.3097586     -0.5598518  Tot=      3.0019049

 Atoms with significant hyperfine tensors:  H7-2,H10-2,N14-14,N15-14,N16-14

--------------------------------------------------------------------------------
 Title Card Required                                     
   99  1000  50  0.1760E-11  0.1000E+07  0.1000E+01 1.0000000000
a 33333  1  0  0  0  1  1   1  0  1  0
     10000   0.63982886E+03    0.0000E+00   /  A  /
     20000   0.24749993E+03    0.0000E+00   /  B  /
     30000   0.24302595E+03    0.0000E+00   /  C  /
 110010000  -0.12274412E+00    0.0000E+00   /  (7 H-2) 3/2*Chi_aa              /
 110040000  -0.61000927E-01    0.0000E+00   /  (7 H-2) 1/4*(Chi_bb-Chi_cc)     /
 110610000  -0.11798127E-01    0.0000E+00   /  (7 H-2) Chi_ab                  /
 110410000   0.66881090E-01    0.0000E+00   /  (7 H-2) Chi_ac                  /
 110210000  -0.55786352E-01    0.0000E+00   /  (7 H-2) Chi_bc                  /
 220010000  -0.93799216E-01    0.0000E+00   /  (10 H-2) 3/2*Chi_aa             /
 220040000  -0.61385692E-01    0.0000E+00   /  (10 H-2) 1/4*(Chi_bb-Chi_cc)    /
 220610000   0.10947841E-01    0.0000E+00   /  (10 H-2) Chi_ab                 /
 220410000  -0.95154862E-01    0.0000E+00   /  (10 H-2) Chi_ac                 /
 220210000  -0.20948837E-01    0.0000E+00   /  (10 H-2) Chi_bc                 /
 330010000  -0.15766641E+01    0.0000E+00   /  (14 N-14) 3/2*Chi_aa            /
 330040000  -0.12571647E+01    0.0000E+00   /  (14 N-14) 1/4*(Chi_bb-Chi_cc)   /
 330610000   0.29449170E+01    0.0000E+00   /  (14 N-14) Chi_ab                /
 330410000   0.13311465E+01    0.0000E+00   /  (14 N-14) Chi_ac                /
 330210000  -0.22437302E+01    0.0000E+00   /  (14 N-14) Chi_bc                /
 440010000  -0.11734550E+01    0.0000E+00   /  (15 N-14) 3/2*Chi_aa            /
 440040000  -0.16548050E+01    0.0000E+00   /  (15 N-14) 1/4*(Chi_bb-Chi_cc)   /
 440610000   0.31036987E+01    0.0000E+00   /  (15 N-14) Chi_ab                /
 440410000  -0.91468530E+00    0.0000E+00   /  (15 N-14) Chi_ac                /
 440210000   0.77203975E+00    0.0000E+00   /  (15 N-14) Chi_bc                /
 550010000   0.18635319E+01    0.0000E+00   /  (16 N-14) 3/2*Chi_aa            /
 550040000  -0.11393718E+01    0.0000E+00   /  (16 N-14) 1/4*(Chi_bb-Chi_cc)   /
 550610000   0.14911613E+01    0.0000E+00   /  (16 N-14) Chi_ab                /
 550410000   0.25559106E+00    0.0000E+00   /  (16 N-14) Chi_ac                /
 550210000  -0.59620183E+00    0.0000E+00   /  (16 N-14) Chi_bc                /
--------------------------------------------------------------------------------



 THEORY:  SUPPOSITION WHICH HAS SCIENTIFIC BASIS,
          BUT NOT EXPERIMENTALLY PROVEN.
 FACT:    A THEORY WHICH HAS BEEN PROVEN BY ENOUGH 
          MONEY TO PAY FOR THE EXPERIMENTS.

                          --  THE WIZARD OF ID
 Job cpu time:  1 days  5 hours 52 minutes  6.5 seconds.
 File lengths (MBytes):  RWF=   2992 Int=      0 D2E=      0 Chk=     21 Scr=      1
 Normal termination of Gaussian 09 at Mon Jun 25 18:25:02 2018.
